% Model:              aplus_itmcp_2d.mph
% Version:            COMSOL 6.1.0.357
% Date:               Jul 21 2024, 23:32
% Dimension:          2
% Nodes:              31
% Expressions:        346
% Description:        
% Length unit:        m
% R                       Z                        8.6e-6[1/K] * (linproj_cp(T-295.3[K]) - intop_cp(linproj_cp(T-295.3[K]))) (m) @ t=0 8.6e-6[1/K] * (linproj_cp(T-295.3[K]) - intop_cp(linproj_cp(T-295.3[K]))) (m) @ t=20 8.6e-6[1/K] * (linproj_cp(T-295.3[K]) - intop_cp(linproj_cp(T-295.3[K]))) (m) @ t=40 8.6e-6[1/K] * (linproj_cp(T-295.3[K]) - intop_cp(linproj_cp(T-295.3[K]))) (m) @ t=60 8.6e-6[1/K] * (linproj_cp(T-295.3[K]) - intop_cp(linproj_cp(T-295.3[K]))) (m) @ t=80 8.6e-6[1/K] * (linproj_cp(T-295.3[K]) - intop_cp(linproj_cp(T-295.3[K]))) (m) @ t=100 8.6e-6[1/K] * (linproj_cp(T-295.3[K]) - intop_cp(linproj_cp(T-295.3[K]))) (m) @ t=120 8.6e-6[1/K] * (linproj_cp(T-295.3[K]) - intop_cp(linproj_cp(T-295.3[K]))) (m) @ t=140 8.6e-6[1/K] * (linproj_cp(T-295.3[K]) - intop_cp(linproj_cp(T-295.3[K]))) (m) @ t=160 8.6e-6[1/K] * (linproj_cp(T-295.3[K]) - intop_cp(linproj_cp(T-295.3[K]))) (m) @ t=180 8.6e-6[1/K] * (linproj_cp(T-295.3[K]) - intop_cp(linproj_cp(T-295.3[K]))) (m) @ t=200 8.6e-6[1/K] * (linproj_cp(T-295.3[K]) - intop_cp(linproj_cp(T-295.3[K]))) (m) @ t=220 8.6e-6[1/K] * (linproj_cp(T-295.3[K]) - intop_cp(linproj_cp(T-295.3[K]))) (m) @ t=240 8.6e-6[1/K] * (linproj_cp(T-295.3[K]) - intop_cp(linproj_cp(T-295.3[K]))) (m) @ t=260 8.6e-6[1/K] * (linproj_cp(T-295.3[K]) - intop_cp(linproj_cp(T-295.3[K]))) (m) @ t=280 8.6e-6[1/K] * (linproj_cp(T-295.3[K]) - intop_cp(linproj_cp(T-295.3[K]))) (m) @ t=300 8.6e-6[1/K] * (linproj_cp(T-295.3[K]) - intop_cp(linproj_cp(T-295.3[K]))) (m) @ t=320 8.6e-6[1/K] * (linproj_cp(T-295.3[K]) - intop_cp(linproj_cp(T-295.3[K]))) (m) @ t=340 8.6e-6[1/K] * (linproj_cp(T-295.3[K]) - intop_cp(linproj_cp(T-295.3[K]))) (m) @ t=360 8.6e-6[1/K] * (linproj_cp(T-295.3[K]) - intop_cp(linproj_cp(T-295.3[K]))) (m) @ t=380 8.6e-6[1/K] * (linproj_cp(T-295.3[K]) - intop_cp(linproj_cp(T-295.3[K]))) (m) @ t=400 8.6e-6[1/K] * (linproj_cp(T-295.3[K]) - intop_cp(linproj_cp(T-295.3[K]))) (m) @ t=420 8.6e-6[1/K] * (linproj_cp(T-295.3[K]) - intop_cp(linproj_cp(T-295.3[K]))) (m) @ t=440 8.6e-6[1/K] * (linproj_cp(T-295.3[K]) - intop_cp(linproj_cp(T-295.3[K]))) (m) @ t=460 8.6e-6[1/K] * (linproj_cp(T-295.3[K]) - intop_cp(linproj_cp(T-295.3[K]))) (m) @ t=480 8.6e-6[1/K] * (linproj_cp(T-295.3[K]) - intop_cp(linproj_cp(T-295.3[K]))) (m) @ t=500 8.6e-6[1/K] * (linproj_cp(T-295.3[K]) - intop_cp(linproj_cp(T-295.3[K]))) (m) @ t=520 8.6e-6[1/K] * (linproj_cp(T-295.3[K]) - intop_cp(linproj_cp(T-295.3[K]))) (m) @ t=540 8.6e-6[1/K] * (linproj_cp(T-295.3[K]) - intop_cp(linproj_cp(T-295.3[K]))) (m) @ t=560 8.6e-6[1/K] * (linproj_cp(T-295.3[K]) - intop_cp(linproj_cp(T-295.3[K]))) (m) @ t=580 8.6e-6[1/K] * (linproj_cp(T-295.3[K]) - intop_cp(linproj_cp(T-295.3[K]))) (m) @ t=600 8.6e-6[1/K] * (linproj_cp(T-295.3[K]) - intop_cp(linproj_cp(T-295.3[K]))) (m) @ t=620 8.6e-6[1/K] * (linproj_cp(T-295.3[K]) - intop_cp(linproj_cp(T-295.3[K]))) (m) @ t=640 8.6e-6[1/K] * (linproj_cp(T-295.3[K]) - intop_cp(linproj_cp(T-295.3[K]))) (m) @ t=660 8.6e-6[1/K] * (linproj_cp(T-295.3[K]) - intop_cp(linproj_cp(T-295.3[K]))) (m) @ t=680 8.6e-6[1/K] * (linproj_cp(T-295.3[K]) - intop_cp(linproj_cp(T-295.3[K]))) (m) @ t=700 8.6e-6[1/K] * (linproj_cp(T-295.3[K]) - intop_cp(linproj_cp(T-295.3[K]))) (m) @ t=720 8.6e-6[1/K] * (linproj_cp(T-295.3[K]) - intop_cp(linproj_cp(T-295.3[K]))) (m) @ t=740 8.6e-6[1/K] * (linproj_cp(T-295.3[K]) - intop_cp(linproj_cp(T-295.3[K]))) (m) @ t=760 8.6e-6[1/K] * (linproj_cp(T-295.3[K]) - intop_cp(linproj_cp(T-295.3[K]))) (m) @ t=780 8.6e-6[1/K] * (linproj_cp(T-295.3[K]) - intop_cp(linproj_cp(T-295.3[K]))) (m) @ t=800 8.6e-6[1/K] * (linproj_cp(T-295.3[K]) - intop_cp(linproj_cp(T-295.3[K]))) (m) @ t=820 8.6e-6[1/K] * (linproj_cp(T-295.3[K]) - intop_cp(linproj_cp(T-295.3[K]))) (m) @ t=840 8.6e-6[1/K] * (linproj_cp(T-295.3[K]) - intop_cp(linproj_cp(T-295.3[K]))) (m) @ t=860 8.6e-6[1/K] * (linproj_cp(T-295.3[K]) - intop_cp(linproj_cp(T-295.3[K]))) (m) @ t=880 8.6e-6[1/K] * (linproj_cp(T-295.3[K]) - intop_cp(linproj_cp(T-295.3[K]))) (m) @ t=900 8.6e-6[1/K] * (linproj_cp(T-295.3[K]) - intop_cp(linproj_cp(T-295.3[K]))) (m) @ t=920 8.6e-6[1/K] * (linproj_cp(T-295.3[K]) - intop_cp(linproj_cp(T-295.3[K]))) (m) @ t=940 8.6e-6[1/K] * (linproj_cp(T-295.3[K]) - intop_cp(linproj_cp(T-295.3[K]))) (m) @ t=960 8.6e-6[1/K] * (linproj_cp(T-295.3[K]) - intop_cp(linproj_cp(T-295.3[K]))) (m) @ t=980 8.6e-6[1/K] * (linproj_cp(T-295.3[K]) - intop_cp(linproj_cp(T-295.3[K]))) (m) @ t=1000 8.6e-6[1/K] * (linproj_cp(T-295.3[K]) - intop_cp(linproj_cp(T-295.3[K]))) (m) @ t=1020 8.6e-6[1/K] * (linproj_cp(T-295.3[K]) - intop_cp(linproj_cp(T-295.3[K]))) (m) @ t=1040 8.6e-6[1/K] * (linproj_cp(T-295.3[K]) - intop_cp(linproj_cp(T-295.3[K]))) (m) @ t=1060 8.6e-6[1/K] * (linproj_cp(T-295.3[K]) - intop_cp(linproj_cp(T-295.3[K]))) (m) @ t=1080 8.6e-6[1/K] * (linproj_cp(T-295.3[K]) - intop_cp(linproj_cp(T-295.3[K]))) (m) @ t=1100 8.6e-6[1/K] * (linproj_cp(T-295.3[K]) - intop_cp(linproj_cp(T-295.3[K]))) (m) @ t=1120 8.6e-6[1/K] * (linproj_cp(T-295.3[K]) - intop_cp(linproj_cp(T-295.3[K]))) (m) @ t=1140 8.6e-6[1/K] * (linproj_cp(T-295.3[K]) - intop_cp(linproj_cp(T-295.3[K]))) (m) @ t=1160 8.6e-6[1/K] * (linproj_cp(T-295.3[K]) - intop_cp(linproj_cp(T-295.3[K]))) (m) @ t=1180 8.6e-6[1/K] * (linproj_cp(T-295.3[K]) - intop_cp(linproj_cp(T-295.3[K]))) (m) @ t=1200 8.6e-6[1/K] * (linproj_cp(T-295.3[K]) - intop_cp(linproj_cp(T-295.3[K]))) (m) @ t=1220 8.6e-6[1/K] * (linproj_cp(T-295.3[K]) - intop_cp(linproj_cp(T-295.3[K]))) (m) @ t=1240 8.6e-6[1/K] * (linproj_cp(T-295.3[K]) - intop_cp(linproj_cp(T-295.3[K]))) (m) @ t=1260 8.6e-6[1/K] * (linproj_cp(T-295.3[K]) - intop_cp(linproj_cp(T-295.3[K]))) (m) @ t=1280 8.6e-6[1/K] * (linproj_cp(T-295.3[K]) - intop_cp(linproj_cp(T-295.3[K]))) (m) @ t=1300 8.6e-6[1/K] * (linproj_cp(T-295.3[K]) - intop_cp(linproj_cp(T-295.3[K]))) (m) @ t=1320 8.6e-6[1/K] * (linproj_cp(T-295.3[K]) - intop_cp(linproj_cp(T-295.3[K]))) (m) @ t=1340 8.6e-6[1/K] * (linproj_cp(T-295.3[K]) - intop_cp(linproj_cp(T-295.3[K]))) (m) @ t=1360 8.6e-6[1/K] * (linproj_cp(T-295.3[K]) - intop_cp(linproj_cp(T-295.3[K]))) (m) @ t=1380 8.6e-6[1/K] * (linproj_cp(T-295.3[K]) - intop_cp(linproj_cp(T-295.3[K]))) (m) @ t=1400 8.6e-6[1/K] * (linproj_cp(T-295.3[K]) - intop_cp(linproj_cp(T-295.3[K]))) (m) @ t=1420 8.6e-6[1/K] * (linproj_cp(T-295.3[K]) - intop_cp(linproj_cp(T-295.3[K]))) (m) @ t=1440 8.6e-6[1/K] * (linproj_cp(T-295.3[K]) - intop_cp(linproj_cp(T-295.3[K]))) (m) @ t=1460 8.6e-6[1/K] * (linproj_cp(T-295.3[K]) - intop_cp(linproj_cp(T-295.3[K]))) (m) @ t=1480 8.6e-6[1/K] * (linproj_cp(T-295.3[K]) - intop_cp(linproj_cp(T-295.3[K]))) (m) @ t=1500 8.6e-6[1/K] * (linproj_cp(T-295.3[K]) - intop_cp(linproj_cp(T-295.3[K]))) (m) @ t=1520 8.6e-6[1/K] * (linproj_cp(T-295.3[K]) - intop_cp(linproj_cp(T-295.3[K]))) (m) @ t=1540 8.6e-6[1/K] * (linproj_cp(T-295.3[K]) - intop_cp(linproj_cp(T-295.3[K]))) (m) @ t=1560 8.6e-6[1/K] * (linproj_cp(T-295.3[K]) - intop_cp(linproj_cp(T-295.3[K]))) (m) @ t=1580 8.6e-6[1/K] * (linproj_cp(T-295.3[K]) - intop_cp(linproj_cp(T-295.3[K]))) (m) @ t=1600 8.6e-6[1/K] * (linproj_cp(T-295.3[K]) - intop_cp(linproj_cp(T-295.3[K]))) (m) @ t=1620 8.6e-6[1/K] * (linproj_cp(T-295.3[K]) - intop_cp(linproj_cp(T-295.3[K]))) (m) @ t=1640 8.6e-6[1/K] * (linproj_cp(T-295.3[K]) - intop_cp(linproj_cp(T-295.3[K]))) (m) @ t=1660 8.6e-6[1/K] * (linproj_cp(T-295.3[K]) - intop_cp(linproj_cp(T-295.3[K]))) (m) @ t=1680 8.6e-6[1/K] * (linproj_cp(T-295.3[K]) - intop_cp(linproj_cp(T-295.3[K]))) (m) @ t=1700 8.6e-6[1/K] * (linproj_cp(T-295.3[K]) - intop_cp(linproj_cp(T-295.3[K]))) (m) @ t=1720 8.6e-6[1/K] * (linproj_cp(T-295.3[K]) - intop_cp(linproj_cp(T-295.3[K]))) (m) @ t=1740 8.6e-6[1/K] * (linproj_cp(T-295.3[K]) - intop_cp(linproj_cp(T-295.3[K]))) (m) @ t=1760 8.6e-6[1/K] * (linproj_cp(T-295.3[K]) - intop_cp(linproj_cp(T-295.3[K]))) (m) @ t=1780 8.6e-6[1/K] * (linproj_cp(T-295.3[K]) - intop_cp(linproj_cp(T-295.3[K]))) (m) @ t=1800 8.6e-6[1/K] * (linproj_cp(T-295.3[K]) - intop_cp(linproj_cp(T-295.3[K]))) (m) @ t=1840 8.6e-6[1/K] * (linproj_cp(T-295.3[K]) - intop_cp(linproj_cp(T-295.3[K]))) (m) @ t=1880 8.6e-6[1/K] * (linproj_cp(T-295.3[K]) - intop_cp(linproj_cp(T-295.3[K]))) (m) @ t=1920 8.6e-6[1/K] * (linproj_cp(T-295.3[K]) - intop_cp(linproj_cp(T-295.3[K]))) (m) @ t=1960 8.6e-6[1/K] * (linproj_cp(T-295.3[K]) - intop_cp(linproj_cp(T-295.3[K]))) (m) @ t=2000 8.6e-6[1/K] * (linproj_cp(T-295.3[K]) - intop_cp(linproj_cp(T-295.3[K]))) (m) @ t=2040 8.6e-6[1/K] * (linproj_cp(T-295.3[K]) - intop_cp(linproj_cp(T-295.3[K]))) (m) @ t=2080 8.6e-6[1/K] * (linproj_cp(T-295.3[K]) - intop_cp(linproj_cp(T-295.3[K]))) (m) @ t=2120 8.6e-6[1/K] * (linproj_cp(T-295.3[K]) - intop_cp(linproj_cp(T-295.3[K]))) (m) @ t=2160 8.6e-6[1/K] * (linproj_cp(T-295.3[K]) - intop_cp(linproj_cp(T-295.3[K]))) (m) @ t=2200 8.6e-6[1/K] * (linproj_cp(T-295.3[K]) - intop_cp(linproj_cp(T-295.3[K]))) (m) @ t=2240 8.6e-6[1/K] * (linproj_cp(T-295.3[K]) - intop_cp(linproj_cp(T-295.3[K]))) (m) @ t=2280 8.6e-6[1/K] * (linproj_cp(T-295.3[K]) - intop_cp(linproj_cp(T-295.3[K]))) (m) @ t=2320 8.6e-6[1/K] * (linproj_cp(T-295.3[K]) - intop_cp(linproj_cp(T-295.3[K]))) (m) @ t=2360 8.6e-6[1/K] * (linproj_cp(T-295.3[K]) - intop_cp(linproj_cp(T-295.3[K]))) (m) @ t=2400 8.6e-6[1/K] * (linproj_cp(T-295.3[K]) - intop_cp(linproj_cp(T-295.3[K]))) (m) @ t=2440 8.6e-6[1/K] * (linproj_cp(T-295.3[K]) - intop_cp(linproj_cp(T-295.3[K]))) (m) @ t=2480 8.6e-6[1/K] * (linproj_cp(T-295.3[K]) - intop_cp(linproj_cp(T-295.3[K]))) (m) @ t=2520 8.6e-6[1/K] * (linproj_cp(T-295.3[K]) - intop_cp(linproj_cp(T-295.3[K]))) (m) @ t=2560 8.6e-6[1/K] * (linproj_cp(T-295.3[K]) - intop_cp(linproj_cp(T-295.3[K]))) (m) @ t=2600 8.6e-6[1/K] * (linproj_cp(T-295.3[K]) - intop_cp(linproj_cp(T-295.3[K]))) (m) @ t=2640 8.6e-6[1/K] * (linproj_cp(T-295.3[K]) - intop_cp(linproj_cp(T-295.3[K]))) (m) @ t=2680 8.6e-6[1/K] * (linproj_cp(T-295.3[K]) - intop_cp(linproj_cp(T-295.3[K]))) (m) @ t=2720 8.6e-6[1/K] * (linproj_cp(T-295.3[K]) - intop_cp(linproj_cp(T-295.3[K]))) (m) @ t=2760 8.6e-6[1/K] * (linproj_cp(T-295.3[K]) - intop_cp(linproj_cp(T-295.3[K]))) (m) @ t=2800 8.6e-6[1/K] * (linproj_cp(T-295.3[K]) - intop_cp(linproj_cp(T-295.3[K]))) (m) @ t=2840 8.6e-6[1/K] * (linproj_cp(T-295.3[K]) - intop_cp(linproj_cp(T-295.3[K]))) (m) @ t=2880 8.6e-6[1/K] * (linproj_cp(T-295.3[K]) - intop_cp(linproj_cp(T-295.3[K]))) (m) @ t=2920 8.6e-6[1/K] * (linproj_cp(T-295.3[K]) - intop_cp(linproj_cp(T-295.3[K]))) (m) @ t=2960 8.6e-6[1/K] * (linproj_cp(T-295.3[K]) - intop_cp(linproj_cp(T-295.3[K]))) (m) @ t=3000 8.6e-6[1/K] * (linproj_cp(T-295.3[K]) - intop_cp(linproj_cp(T-295.3[K]))) (m) @ t=3040 8.6e-6[1/K] * (linproj_cp(T-295.3[K]) - intop_cp(linproj_cp(T-295.3[K]))) (m) @ t=3080 8.6e-6[1/K] * (linproj_cp(T-295.3[K]) - intop_cp(linproj_cp(T-295.3[K]))) (m) @ t=3120 8.6e-6[1/K] * (linproj_cp(T-295.3[K]) - intop_cp(linproj_cp(T-295.3[K]))) (m) @ t=3160 8.6e-6[1/K] * (linproj_cp(T-295.3[K]) - intop_cp(linproj_cp(T-295.3[K]))) (m) @ t=3200 8.6e-6[1/K] * (linproj_cp(T-295.3[K]) - intop_cp(linproj_cp(T-295.3[K]))) (m) @ t=3240 8.6e-6[1/K] * (linproj_cp(T-295.3[K]) - intop_cp(linproj_cp(T-295.3[K]))) (m) @ t=3280 8.6e-6[1/K] * (linproj_cp(T-295.3[K]) - intop_cp(linproj_cp(T-295.3[K]))) (m) @ t=3320 8.6e-6[1/K] * (linproj_cp(T-295.3[K]) - intop_cp(linproj_cp(T-295.3[K]))) (m) @ t=3360 8.6e-6[1/K] * (linproj_cp(T-295.3[K]) - intop_cp(linproj_cp(T-295.3[K]))) (m) @ t=3400 8.6e-6[1/K] * (linproj_cp(T-295.3[K]) - intop_cp(linproj_cp(T-295.3[K]))) (m) @ t=3440 8.6e-6[1/K] * (linproj_cp(T-295.3[K]) - intop_cp(linproj_cp(T-295.3[K]))) (m) @ t=3480 8.6e-6[1/K] * (linproj_cp(T-295.3[K]) - intop_cp(linproj_cp(T-295.3[K]))) (m) @ t=3520 8.6e-6[1/K] * (linproj_cp(T-295.3[K]) - intop_cp(linproj_cp(T-295.3[K]))) (m) @ t=3560 8.6e-6[1/K] * (linproj_cp(T-295.3[K]) - intop_cp(linproj_cp(T-295.3[K]))) (m) @ t=3600 8.6e-6[1/K] * (linproj_cp(T-295.3[K]) - intop_cp(linproj_cp(T-295.3[K]))) (m) @ t=3660 8.6e-6[1/K] * (linproj_cp(T-295.3[K]) - intop_cp(linproj_cp(T-295.3[K]))) (m) @ t=3720 8.6e-6[1/K] * (linproj_cp(T-295.3[K]) - intop_cp(linproj_cp(T-295.3[K]))) (m) @ t=3780 8.6e-6[1/K] * (linproj_cp(T-295.3[K]) - intop_cp(linproj_cp(T-295.3[K]))) (m) @ t=3840 8.6e-6[1/K] * (linproj_cp(T-295.3[K]) - intop_cp(linproj_cp(T-295.3[K]))) (m) @ t=3900 8.6e-6[1/K] * (linproj_cp(T-295.3[K]) - intop_cp(linproj_cp(T-295.3[K]))) (m) @ t=3960 8.6e-6[1/K] * (linproj_cp(T-295.3[K]) - intop_cp(linproj_cp(T-295.3[K]))) (m) @ t=4020 8.6e-6[1/K] * (linproj_cp(T-295.3[K]) - intop_cp(linproj_cp(T-295.3[K]))) (m) @ t=4080 8.6e-6[1/K] * (linproj_cp(T-295.3[K]) - intop_cp(linproj_cp(T-295.3[K]))) (m) @ t=4140 8.6e-6[1/K] * (linproj_cp(T-295.3[K]) - intop_cp(linproj_cp(T-295.3[K]))) (m) @ t=4200 8.6e-6[1/K] * (linproj_cp(T-295.3[K]) - intop_cp(linproj_cp(T-295.3[K]))) (m) @ t=4260 8.6e-6[1/K] * (linproj_cp(T-295.3[K]) - intop_cp(linproj_cp(T-295.3[K]))) (m) @ t=4320 8.6e-6[1/K] * (linproj_cp(T-295.3[K]) - intop_cp(linproj_cp(T-295.3[K]))) (m) @ t=4380 8.6e-6[1/K] * (linproj_cp(T-295.3[K]) - intop_cp(linproj_cp(T-295.3[K]))) (m) @ t=4440 8.6e-6[1/K] * (linproj_cp(T-295.3[K]) - intop_cp(linproj_cp(T-295.3[K]))) (m) @ t=4500 8.6e-6[1/K] * (linproj_cp(T-295.3[K]) - intop_cp(linproj_cp(T-295.3[K]))) (m) @ t=4560 8.6e-6[1/K] * (linproj_cp(T-295.3[K]) - intop_cp(linproj_cp(T-295.3[K]))) (m) @ t=4620 8.6e-6[1/K] * (linproj_cp(T-295.3[K]) - intop_cp(linproj_cp(T-295.3[K]))) (m) @ t=4680 8.6e-6[1/K] * (linproj_cp(T-295.3[K]) - intop_cp(linproj_cp(T-295.3[K]))) (m) @ t=4740 8.6e-6[1/K] * (linproj_cp(T-295.3[K]) - intop_cp(linproj_cp(T-295.3[K]))) (m) @ t=4800 8.6e-6[1/K] * (linproj_cp(T-295.3[K]) - intop_cp(linproj_cp(T-295.3[K]))) (m) @ t=4860 8.6e-6[1/K] * (linproj_cp(T-295.3[K]) - intop_cp(linproj_cp(T-295.3[K]))) (m) @ t=4920 8.6e-6[1/K] * (linproj_cp(T-295.3[K]) - intop_cp(linproj_cp(T-295.3[K]))) (m) @ t=4980 8.6e-6[1/K] * (linproj_cp(T-295.3[K]) - intop_cp(linproj_cp(T-295.3[K]))) (m) @ t=5040 8.6e-6[1/K] * (linproj_cp(T-295.3[K]) - intop_cp(linproj_cp(T-295.3[K]))) (m) @ t=5100 8.6e-6[1/K] * (linproj_cp(T-295.3[K]) - intop_cp(linproj_cp(T-295.3[K]))) (m) @ t=5160 8.6e-6[1/K] * (linproj_cp(T-295.3[K]) - intop_cp(linproj_cp(T-295.3[K]))) (m) @ t=5220 8.6e-6[1/K] * (linproj_cp(T-295.3[K]) - intop_cp(linproj_cp(T-295.3[K]))) (m) @ t=5280 8.6e-6[1/K] * (linproj_cp(T-295.3[K]) - intop_cp(linproj_cp(T-295.3[K]))) (m) @ t=5340 8.6e-6[1/K] * (linproj_cp(T-295.3[K]) - intop_cp(linproj_cp(T-295.3[K]))) (m) @ t=5400 8.6e-6[1/K] * (linproj_cp(T-295.3[K]) - intop_cp(linproj_cp(T-295.3[K]))) (m) @ t=5460 8.6e-6[1/K] * (linproj_cp(T-295.3[K]) - intop_cp(linproj_cp(T-295.3[K]))) (m) @ t=5520 8.6e-6[1/K] * (linproj_cp(T-295.3[K]) - intop_cp(linproj_cp(T-295.3[K]))) (m) @ t=5580 8.6e-6[1/K] * (linproj_cp(T-295.3[K]) - intop_cp(linproj_cp(T-295.3[K]))) (m) @ t=5640 8.6e-6[1/K] * (linproj_cp(T-295.3[K]) - intop_cp(linproj_cp(T-295.3[K]))) (m) @ t=5700 8.6e-6[1/K] * (linproj_cp(T-295.3[K]) - intop_cp(linproj_cp(T-295.3[K]))) (m) @ t=5760 8.6e-6[1/K] * (linproj_cp(T-295.3[K]) - intop_cp(linproj_cp(T-295.3[K]))) (m) @ t=5820 8.6e-6[1/K] * (linproj_cp(T-295.3[K]) - intop_cp(linproj_cp(T-295.3[K]))) (m) @ t=5880 8.6e-6[1/K] * (linproj_cp(T-295.3[K]) - intop_cp(linproj_cp(T-295.3[K]))) (m) @ t=5940 8.6e-6[1/K] * (linproj_cp(T-295.3[K]) - intop_cp(linproj_cp(T-295.3[K]))) (m) @ t=6000 8.6e-6[1/K] * (linproj_cp(T-295.3[K]) - intop_cp(linproj_cp(T-295.3[K]))) (m) @ t=6060 8.6e-6[1/K] * (linproj_cp(T-295.3[K]) - intop_cp(linproj_cp(T-295.3[K]))) (m) @ t=6120 8.6e-6[1/K] * (linproj_cp(T-295.3[K]) - intop_cp(linproj_cp(T-295.3[K]))) (m) @ t=6180 8.6e-6[1/K] * (linproj_cp(T-295.3[K]) - intop_cp(linproj_cp(T-295.3[K]))) (m) @ t=6240 8.6e-6[1/K] * (linproj_cp(T-295.3[K]) - intop_cp(linproj_cp(T-295.3[K]))) (m) @ t=6300 8.6e-6[1/K] * (linproj_cp(T-295.3[K]) - intop_cp(linproj_cp(T-295.3[K]))) (m) @ t=6360 8.6e-6[1/K] * (linproj_cp(T-295.3[K]) - intop_cp(linproj_cp(T-295.3[K]))) (m) @ t=6420 8.6e-6[1/K] * (linproj_cp(T-295.3[K]) - intop_cp(linproj_cp(T-295.3[K]))) (m) @ t=6480 8.6e-6[1/K] * (linproj_cp(T-295.3[K]) - intop_cp(linproj_cp(T-295.3[K]))) (m) @ t=6540 8.6e-6[1/K] * (linproj_cp(T-295.3[K]) - intop_cp(linproj_cp(T-295.3[K]))) (m) @ t=6600 8.6e-6[1/K] * (linproj_cp(T-295.3[K]) - intop_cp(linproj_cp(T-295.3[K]))) (m) @ t=6660 8.6e-6[1/K] * (linproj_cp(T-295.3[K]) - intop_cp(linproj_cp(T-295.3[K]))) (m) @ t=6720 8.6e-6[1/K] * (linproj_cp(T-295.3[K]) - intop_cp(linproj_cp(T-295.3[K]))) (m) @ t=6780 8.6e-6[1/K] * (linproj_cp(T-295.3[K]) - intop_cp(linproj_cp(T-295.3[K]))) (m) @ t=6840 8.6e-6[1/K] * (linproj_cp(T-295.3[K]) - intop_cp(linproj_cp(T-295.3[K]))) (m) @ t=6900 8.6e-6[1/K] * (linproj_cp(T-295.3[K]) - intop_cp(linproj_cp(T-295.3[K]))) (m) @ t=6960 8.6e-6[1/K] * (linproj_cp(T-295.3[K]) - intop_cp(linproj_cp(T-295.3[K]))) (m) @ t=7020 8.6e-6[1/K] * (linproj_cp(T-295.3[K]) - intop_cp(linproj_cp(T-295.3[K]))) (m) @ t=7080 8.6e-6[1/K] * (linproj_cp(T-295.3[K]) - intop_cp(linproj_cp(T-295.3[K]))) (m) @ t=7140 8.6e-6[1/K] * (linproj_cp(T-295.3[K]) - intop_cp(linproj_cp(T-295.3[K]))) (m) @ t=7200 8.6e-6[1/K] * (linproj_cp(T-295.3[K]) - intop_cp(linproj_cp(T-295.3[K]))) (m) @ t=7320 8.6e-6[1/K] * (linproj_cp(T-295.3[K]) - intop_cp(linproj_cp(T-295.3[K]))) (m) @ t=7440 8.6e-6[1/K] * (linproj_cp(T-295.3[K]) - intop_cp(linproj_cp(T-295.3[K]))) (m) @ t=7560 8.6e-6[1/K] * (linproj_cp(T-295.3[K]) - intop_cp(linproj_cp(T-295.3[K]))) (m) @ t=7680 8.6e-6[1/K] * (linproj_cp(T-295.3[K]) - intop_cp(linproj_cp(T-295.3[K]))) (m) @ t=7800 8.6e-6[1/K] * (linproj_cp(T-295.3[K]) - intop_cp(linproj_cp(T-295.3[K]))) (m) @ t=7920 8.6e-6[1/K] * (linproj_cp(T-295.3[K]) - intop_cp(linproj_cp(T-295.3[K]))) (m) @ t=8040 8.6e-6[1/K] * (linproj_cp(T-295.3[K]) - intop_cp(linproj_cp(T-295.3[K]))) (m) @ t=8160 8.6e-6[1/K] * (linproj_cp(T-295.3[K]) - intop_cp(linproj_cp(T-295.3[K]))) (m) @ t=8280 8.6e-6[1/K] * (linproj_cp(T-295.3[K]) - intop_cp(linproj_cp(T-295.3[K]))) (m) @ t=8400 8.6e-6[1/K] * (linproj_cp(T-295.3[K]) - intop_cp(linproj_cp(T-295.3[K]))) (m) @ t=8520 8.6e-6[1/K] * (linproj_cp(T-295.3[K]) - intop_cp(linproj_cp(T-295.3[K]))) (m) @ t=8640 8.6e-6[1/K] * (linproj_cp(T-295.3[K]) - intop_cp(linproj_cp(T-295.3[K]))) (m) @ t=8760 8.6e-6[1/K] * (linproj_cp(T-295.3[K]) - intop_cp(linproj_cp(T-295.3[K]))) (m) @ t=8880 8.6e-6[1/K] * (linproj_cp(T-295.3[K]) - intop_cp(linproj_cp(T-295.3[K]))) (m) @ t=9000 8.6e-6[1/K] * (linproj_cp(T-295.3[K]) - intop_cp(linproj_cp(T-295.3[K]))) (m) @ t=9120 8.6e-6[1/K] * (linproj_cp(T-295.3[K]) - intop_cp(linproj_cp(T-295.3[K]))) (m) @ t=9240 8.6e-6[1/K] * (linproj_cp(T-295.3[K]) - intop_cp(linproj_cp(T-295.3[K]))) (m) @ t=9360 8.6e-6[1/K] * (linproj_cp(T-295.3[K]) - intop_cp(linproj_cp(T-295.3[K]))) (m) @ t=9480 8.6e-6[1/K] * (linproj_cp(T-295.3[K]) - intop_cp(linproj_cp(T-295.3[K]))) (m) @ t=9600 8.6e-6[1/K] * (linproj_cp(T-295.3[K]) - intop_cp(linproj_cp(T-295.3[K]))) (m) @ t=9720 8.6e-6[1/K] * (linproj_cp(T-295.3[K]) - intop_cp(linproj_cp(T-295.3[K]))) (m) @ t=9840 8.6e-6[1/K] * (linproj_cp(T-295.3[K]) - intop_cp(linproj_cp(T-295.3[K]))) (m) @ t=9960 8.6e-6[1/K] * (linproj_cp(T-295.3[K]) - intop_cp(linproj_cp(T-295.3[K]))) (m) @ t=10080 8.6e-6[1/K] * (linproj_cp(T-295.3[K]) - intop_cp(linproj_cp(T-295.3[K]))) (m) @ t=10200 8.6e-6[1/K] * (linproj_cp(T-295.3[K]) - intop_cp(linproj_cp(T-295.3[K]))) (m) @ t=10320 8.6e-6[1/K] * (linproj_cp(T-295.3[K]) - intop_cp(linproj_cp(T-295.3[K]))) (m) @ t=10440 8.6e-6[1/K] * (linproj_cp(T-295.3[K]) - intop_cp(linproj_cp(T-295.3[K]))) (m) @ t=10560 8.6e-6[1/K] * (linproj_cp(T-295.3[K]) - intop_cp(linproj_cp(T-295.3[K]))) (m) @ t=10680 8.6e-6[1/K] * (linproj_cp(T-295.3[K]) - intop_cp(linproj_cp(T-295.3[K]))) (m) @ t=10800 8.6e-6[1/K] * (linproj_cp(T-295.3[K]) - intop_cp(linproj_cp(T-295.3[K]))) (m) @ t=10920 8.6e-6[1/K] * (linproj_cp(T-295.3[K]) - intop_cp(linproj_cp(T-295.3[K]))) (m) @ t=11040 8.6e-6[1/K] * (linproj_cp(T-295.3[K]) - intop_cp(linproj_cp(T-295.3[K]))) (m) @ t=11160 8.6e-6[1/K] * (linproj_cp(T-295.3[K]) - intop_cp(linproj_cp(T-295.3[K]))) (m) @ t=11280 8.6e-6[1/K] * (linproj_cp(T-295.3[K]) - intop_cp(linproj_cp(T-295.3[K]))) (m) @ t=11400 8.6e-6[1/K] * (linproj_cp(T-295.3[K]) - intop_cp(linproj_cp(T-295.3[K]))) (m) @ t=11520 8.6e-6[1/K] * (linproj_cp(T-295.3[K]) - intop_cp(linproj_cp(T-295.3[K]))) (m) @ t=11640 8.6e-6[1/K] * (linproj_cp(T-295.3[K]) - intop_cp(linproj_cp(T-295.3[K]))) (m) @ t=11760 8.6e-6[1/K] * (linproj_cp(T-295.3[K]) - intop_cp(linproj_cp(T-295.3[K]))) (m) @ t=11880 8.6e-6[1/K] * (linproj_cp(T-295.3[K]) - intop_cp(linproj_cp(T-295.3[K]))) (m) @ t=12000 8.6e-6[1/K] * (linproj_cp(T-295.3[K]) - intop_cp(linproj_cp(T-295.3[K]))) (m) @ t=12120 8.6e-6[1/K] * (linproj_cp(T-295.3[K]) - intop_cp(linproj_cp(T-295.3[K]))) (m) @ t=12240 8.6e-6[1/K] * (linproj_cp(T-295.3[K]) - intop_cp(linproj_cp(T-295.3[K]))) (m) @ t=12360 8.6e-6[1/K] * (linproj_cp(T-295.3[K]) - intop_cp(linproj_cp(T-295.3[K]))) (m) @ t=12480 8.6e-6[1/K] * (linproj_cp(T-295.3[K]) - intop_cp(linproj_cp(T-295.3[K]))) (m) @ t=12600 8.6e-6[1/K] * (linproj_cp(T-295.3[K]) - intop_cp(linproj_cp(T-295.3[K]))) (m) @ t=12720 8.6e-6[1/K] * (linproj_cp(T-295.3[K]) - intop_cp(linproj_cp(T-295.3[K]))) (m) @ t=12840 8.6e-6[1/K] * (linproj_cp(T-295.3[K]) - intop_cp(linproj_cp(T-295.3[K]))) (m) @ t=12960 8.6e-6[1/K] * (linproj_cp(T-295.3[K]) - intop_cp(linproj_cp(T-295.3[K]))) (m) @ t=13080 8.6e-6[1/K] * (linproj_cp(T-295.3[K]) - intop_cp(linproj_cp(T-295.3[K]))) (m) @ t=13200 8.6e-6[1/K] * (linproj_cp(T-295.3[K]) - intop_cp(linproj_cp(T-295.3[K]))) (m) @ t=13320 8.6e-6[1/K] * (linproj_cp(T-295.3[K]) - intop_cp(linproj_cp(T-295.3[K]))) (m) @ t=13440 8.6e-6[1/K] * (linproj_cp(T-295.3[K]) - intop_cp(linproj_cp(T-295.3[K]))) (m) @ t=13560 8.6e-6[1/K] * (linproj_cp(T-295.3[K]) - intop_cp(linproj_cp(T-295.3[K]))) (m) @ t=13680 8.6e-6[1/K] * (linproj_cp(T-295.3[K]) - intop_cp(linproj_cp(T-295.3[K]))) (m) @ t=13800 8.6e-6[1/K] * (linproj_cp(T-295.3[K]) - intop_cp(linproj_cp(T-295.3[K]))) (m) @ t=13920 8.6e-6[1/K] * (linproj_cp(T-295.3[K]) - intop_cp(linproj_cp(T-295.3[K]))) (m) @ t=14040 8.6e-6[1/K] * (linproj_cp(T-295.3[K]) - intop_cp(linproj_cp(T-295.3[K]))) (m) @ t=14160 8.6e-6[1/K] * (linproj_cp(T-295.3[K]) - intop_cp(linproj_cp(T-295.3[K]))) (m) @ t=14280 8.6e-6[1/K] * (linproj_cp(T-295.3[K]) - intop_cp(linproj_cp(T-295.3[K]))) (m) @ t=14400 8.6e-6[1/K] * (linproj_cp(T-295.3[K]) - intop_cp(linproj_cp(T-295.3[K]))) (m) @ t=14520 8.6e-6[1/K] * (linproj_cp(T-295.3[K]) - intop_cp(linproj_cp(T-295.3[K]))) (m) @ t=14640 8.6e-6[1/K] * (linproj_cp(T-295.3[K]) - intop_cp(linproj_cp(T-295.3[K]))) (m) @ t=14760 8.6e-6[1/K] * (linproj_cp(T-295.3[K]) - intop_cp(linproj_cp(T-295.3[K]))) (m) @ t=14880 8.6e-6[1/K] * (linproj_cp(T-295.3[K]) - intop_cp(linproj_cp(T-295.3[K]))) (m) @ t=15000 8.6e-6[1/K] * (linproj_cp(T-295.3[K]) - intop_cp(linproj_cp(T-295.3[K]))) (m) @ t=15120 8.6e-6[1/K] * (linproj_cp(T-295.3[K]) - intop_cp(linproj_cp(T-295.3[K]))) (m) @ t=15240 8.6e-6[1/K] * (linproj_cp(T-295.3[K]) - intop_cp(linproj_cp(T-295.3[K]))) (m) @ t=15360 8.6e-6[1/K] * (linproj_cp(T-295.3[K]) - intop_cp(linproj_cp(T-295.3[K]))) (m) @ t=15480 8.6e-6[1/K] * (linproj_cp(T-295.3[K]) - intop_cp(linproj_cp(T-295.3[K]))) (m) @ t=15600 8.6e-6[1/K] * (linproj_cp(T-295.3[K]) - intop_cp(linproj_cp(T-295.3[K]))) (m) @ t=15720 8.6e-6[1/K] * (linproj_cp(T-295.3[K]) - intop_cp(linproj_cp(T-295.3[K]))) (m) @ t=15840 8.6e-6[1/K] * (linproj_cp(T-295.3[K]) - intop_cp(linproj_cp(T-295.3[K]))) (m) @ t=15960 8.6e-6[1/K] * (linproj_cp(T-295.3[K]) - intop_cp(linproj_cp(T-295.3[K]))) (m) @ t=16080 8.6e-6[1/K] * (linproj_cp(T-295.3[K]) - intop_cp(linproj_cp(T-295.3[K]))) (m) @ t=16200 8.6e-6[1/K] * (linproj_cp(T-295.3[K]) - intop_cp(linproj_cp(T-295.3[K]))) (m) @ t=16320 8.6e-6[1/K] * (linproj_cp(T-295.3[K]) - intop_cp(linproj_cp(T-295.3[K]))) (m) @ t=16440 8.6e-6[1/K] * (linproj_cp(T-295.3[K]) - intop_cp(linproj_cp(T-295.3[K]))) (m) @ t=16560 8.6e-6[1/K] * (linproj_cp(T-295.3[K]) - intop_cp(linproj_cp(T-295.3[K]))) (m) @ t=16680 8.6e-6[1/K] * (linproj_cp(T-295.3[K]) - intop_cp(linproj_cp(T-295.3[K]))) (m) @ t=16800 8.6e-6[1/K] * (linproj_cp(T-295.3[K]) - intop_cp(linproj_cp(T-295.3[K]))) (m) @ t=16920 8.6e-6[1/K] * (linproj_cp(T-295.3[K]) - intop_cp(linproj_cp(T-295.3[K]))) (m) @ t=17040 8.6e-6[1/K] * (linproj_cp(T-295.3[K]) - intop_cp(linproj_cp(T-295.3[K]))) (m) @ t=17160 8.6e-6[1/K] * (linproj_cp(T-295.3[K]) - intop_cp(linproj_cp(T-295.3[K]))) (m) @ t=17280 8.6e-6[1/K] * (linproj_cp(T-295.3[K]) - intop_cp(linproj_cp(T-295.3[K]))) (m) @ t=17400 8.6e-6[1/K] * (linproj_cp(T-295.3[K]) - intop_cp(linproj_cp(T-295.3[K]))) (m) @ t=17520 8.6e-6[1/K] * (linproj_cp(T-295.3[K]) - intop_cp(linproj_cp(T-295.3[K]))) (m) @ t=17640 8.6e-6[1/K] * (linproj_cp(T-295.3[K]) - intop_cp(linproj_cp(T-295.3[K]))) (m) @ t=17760 8.6e-6[1/K] * (linproj_cp(T-295.3[K]) - intop_cp(linproj_cp(T-295.3[K]))) (m) @ t=17880 8.6e-6[1/K] * (linproj_cp(T-295.3[K]) - intop_cp(linproj_cp(T-295.3[K]))) (m) @ t=18000 8.6e-6[1/K] * (linproj_cp(T-295.3[K]) - intop_cp(linproj_cp(T-295.3[K]))) (m) @ t=18300 8.6e-6[1/K] * (linproj_cp(T-295.3[K]) - intop_cp(linproj_cp(T-295.3[K]))) (m) @ t=18600 8.6e-6[1/K] * (linproj_cp(T-295.3[K]) - intop_cp(linproj_cp(T-295.3[K]))) (m) @ t=18900 8.6e-6[1/K] * (linproj_cp(T-295.3[K]) - intop_cp(linproj_cp(T-295.3[K]))) (m) @ t=19200 8.6e-6[1/K] * (linproj_cp(T-295.3[K]) - intop_cp(linproj_cp(T-295.3[K]))) (m) @ t=19500 8.6e-6[1/K] * (linproj_cp(T-295.3[K]) - intop_cp(linproj_cp(T-295.3[K]))) (m) @ t=19800 8.6e-6[1/K] * (linproj_cp(T-295.3[K]) - intop_cp(linproj_cp(T-295.3[K]))) (m) @ t=20100 8.6e-6[1/K] * (linproj_cp(T-295.3[K]) - intop_cp(linproj_cp(T-295.3[K]))) (m) @ t=20400 8.6e-6[1/K] * (linproj_cp(T-295.3[K]) - intop_cp(linproj_cp(T-295.3[K]))) (m) @ t=20700 8.6e-6[1/K] * (linproj_cp(T-295.3[K]) - intop_cp(linproj_cp(T-295.3[K]))) (m) @ t=21000 8.6e-6[1/K] * (linproj_cp(T-295.3[K]) - intop_cp(linproj_cp(T-295.3[K]))) (m) @ t=21300 8.6e-6[1/K] * (linproj_cp(T-295.3[K]) - intop_cp(linproj_cp(T-295.3[K]))) (m) @ t=21600 8.6e-6[1/K] * (linproj_cp(T-295.3[K]) - intop_cp(linproj_cp(T-295.3[K]))) (m) @ t=21900 8.6e-6[1/K] * (linproj_cp(T-295.3[K]) - intop_cp(linproj_cp(T-295.3[K]))) (m) @ t=22200 8.6e-6[1/K] * (linproj_cp(T-295.3[K]) - intop_cp(linproj_cp(T-295.3[K]))) (m) @ t=22500 8.6e-6[1/K] * (linproj_cp(T-295.3[K]) - intop_cp(linproj_cp(T-295.3[K]))) (m) @ t=22800 8.6e-6[1/K] * (linproj_cp(T-295.3[K]) - intop_cp(linproj_cp(T-295.3[K]))) (m) @ t=23100 8.6e-6[1/K] * (linproj_cp(T-295.3[K]) - intop_cp(linproj_cp(T-295.3[K]))) (m) @ t=23400 8.6e-6[1/K] * (linproj_cp(T-295.3[K]) - intop_cp(linproj_cp(T-295.3[K]))) (m) @ t=23700 8.6e-6[1/K] * (linproj_cp(T-295.3[K]) - intop_cp(linproj_cp(T-295.3[K]))) (m) @ t=24000 8.6e-6[1/K] * (linproj_cp(T-295.3[K]) - intop_cp(linproj_cp(T-295.3[K]))) (m) @ t=24300 8.6e-6[1/K] * (linproj_cp(T-295.3[K]) - intop_cp(linproj_cp(T-295.3[K]))) (m) @ t=24600 8.6e-6[1/K] * (linproj_cp(T-295.3[K]) - intop_cp(linproj_cp(T-295.3[K]))) (m) @ t=24900 8.6e-6[1/K] * (linproj_cp(T-295.3[K]) - intop_cp(linproj_cp(T-295.3[K]))) (m) @ t=25200 8.6e-6[1/K] * (linproj_cp(T-295.3[K]) - intop_cp(linproj_cp(T-295.3[K]))) (m) @ t=25500 8.6e-6[1/K] * (linproj_cp(T-295.3[K]) - intop_cp(linproj_cp(T-295.3[K]))) (m) @ t=25800 8.6e-6[1/K] * (linproj_cp(T-295.3[K]) - intop_cp(linproj_cp(T-295.3[K]))) (m) @ t=26100 8.6e-6[1/K] * (linproj_cp(T-295.3[K]) - intop_cp(linproj_cp(T-295.3[K]))) (m) @ t=26400 8.6e-6[1/K] * (linproj_cp(T-295.3[K]) - intop_cp(linproj_cp(T-295.3[K]))) (m) @ t=26700 8.6e-6[1/K] * (linproj_cp(T-295.3[K]) - intop_cp(linproj_cp(T-295.3[K]))) (m) @ t=27000 8.6e-6[1/K] * (linproj_cp(T-295.3[K]) - intop_cp(linproj_cp(T-295.3[K]))) (m) @ t=27300 8.6e-6[1/K] * (linproj_cp(T-295.3[K]) - intop_cp(linproj_cp(T-295.3[K]))) (m) @ t=27600 8.6e-6[1/K] * (linproj_cp(T-295.3[K]) - intop_cp(linproj_cp(T-295.3[K]))) (m) @ t=27900 8.6e-6[1/K] * (linproj_cp(T-295.3[K]) - intop_cp(linproj_cp(T-295.3[K]))) (m) @ t=28200 8.6e-6[1/K] * (linproj_cp(T-295.3[K]) - intop_cp(linproj_cp(T-295.3[K]))) (m) @ t=28500 8.6e-6[1/K] * (linproj_cp(T-295.3[K]) - intop_cp(linproj_cp(T-295.3[K]))) (m) @ t=28800 8.6e-6[1/K] * (linproj_cp(T-295.3[K]) - intop_cp(linproj_cp(T-295.3[K]))) (m) @ t=29100 8.6e-6[1/K] * (linproj_cp(T-295.3[K]) - intop_cp(linproj_cp(T-295.3[K]))) (m) @ t=29400 8.6e-6[1/K] * (linproj_cp(T-295.3[K]) - intop_cp(linproj_cp(T-295.3[K]))) (m) @ t=29700 8.6e-6[1/K] * (linproj_cp(T-295.3[K]) - intop_cp(linproj_cp(T-295.3[K]))) (m) @ t=30000 8.6e-6[1/K] * (linproj_cp(T-295.3[K]) - intop_cp(linproj_cp(T-295.3[K]))) (m) @ t=30300 8.6e-6[1/K] * (linproj_cp(T-295.3[K]) - intop_cp(linproj_cp(T-295.3[K]))) (m) @ t=30600 8.6e-6[1/K] * (linproj_cp(T-295.3[K]) - intop_cp(linproj_cp(T-295.3[K]))) (m) @ t=30900 8.6e-6[1/K] * (linproj_cp(T-295.3[K]) - intop_cp(linproj_cp(T-295.3[K]))) (m) @ t=31200 8.6e-6[1/K] * (linproj_cp(T-295.3[K]) - intop_cp(linproj_cp(T-295.3[K]))) (m) @ t=31500 8.6e-6[1/K] * (linproj_cp(T-295.3[K]) - intop_cp(linproj_cp(T-295.3[K]))) (m) @ t=31800 8.6e-6[1/K] * (linproj_cp(T-295.3[K]) - intop_cp(linproj_cp(T-295.3[K]))) (m) @ t=32100 8.6e-6[1/K] * (linproj_cp(T-295.3[K]) - intop_cp(linproj_cp(T-295.3[K]))) (m) @ t=32400 8.6e-6[1/K] * (linproj_cp(T-295.3[K]) - intop_cp(linproj_cp(T-295.3[K]))) (m) @ t=32700 8.6e-6[1/K] * (linproj_cp(T-295.3[K]) - intop_cp(linproj_cp(T-295.3[K]))) (m) @ t=33000 8.6e-6[1/K] * (linproj_cp(T-295.3[K]) - intop_cp(linproj_cp(T-295.3[K]))) (m) @ t=33300 8.6e-6[1/K] * (linproj_cp(T-295.3[K]) - intop_cp(linproj_cp(T-295.3[K]))) (m) @ t=33600 8.6e-6[1/K] * (linproj_cp(T-295.3[K]) - intop_cp(linproj_cp(T-295.3[K]))) (m) @ t=33900 8.6e-6[1/K] * (linproj_cp(T-295.3[K]) - intop_cp(linproj_cp(T-295.3[K]))) (m) @ t=34200 8.6e-6[1/K] * (linproj_cp(T-295.3[K]) - intop_cp(linproj_cp(T