% Model:              aplus_itmcp_2d.mph
% Version:            COMSOL 6.1.0.357
% Date:               Jul 21 2024, 22:58
% Dimension:          2
% Nodes:              31
% Expressions:        346
% Description:        
% Length unit:        m
% R                       Z                        w-intop_itm(w) (m) @ t=0 w-intop_itm(w) (m) @ t=20 w-intop_itm(w) (m) @ t=40 w-intop_itm(w) (m) @ t=60 w-intop_itm(w) (m) @ t=80 w-intop_itm(w) (m) @ t=100 w-intop_itm(w) (m) @ t=120 w-intop_itm(w) (m) @ t=140 w-intop_itm(w) (m) @ t=160 w-intop_itm(w) (m) @ t=180 w-intop_itm(w) (m) @ t=200 w-intop_itm(w) (m) @ t=220 w-intop_itm(w) (m) @ t=240 w-intop_itm(w) (m) @ t=260 w-intop_itm(w) (m) @ t=280 w-intop_itm(w) (m) @ t=300 w-intop_itm(w) (m) @ t=320 w-intop_itm(w) (m) @ t=340 w-intop_itm(w) (m) @ t=360 w-intop_itm(w) (m) @ t=380 w-intop_itm(w) (m) @ t=400 w-intop_itm(w) (m) @ t=420 w-intop_itm(w) (m) @ t=440 w-intop_itm(w) (m) @ t=460 w-intop_itm(w) (m) @ t=480 w-intop_itm(w) (m) @ t=500 w-intop_itm(w) (m) @ t=520 w-intop_itm(w) (m) @ t=540 w-intop_itm(w) (m) @ t=560 w-intop_itm(w) (m) @ t=580 w-intop_itm(w) (m) @ t=600 w-intop_itm(w) (m) @ t=620 w-intop_itm(w) (m) @ t=640 w-intop_itm(w) (m) @ t=660 w-intop_itm(w) (m) @ t=680 w-intop_itm(w) (m) @ t=700 w-intop_itm(w) (m) @ t=720 w-intop_itm(w) (m) @ t=740 w-intop_itm(w) (m) @ t=760 w-intop_itm(w) (m) @ t=780 w-intop_itm(w) (m) @ t=800 w-intop_itm(w) (m) @ t=820 w-intop_itm(w) (m) @ t=840 w-intop_itm(w) (m) @ t=860 w-intop_itm(w) (m) @ t=880 w-intop_itm(w) (m) @ t=900 w-intop_itm(w) (m) @ t=920 w-intop_itm(w) (m) @ t=940 w-intop_itm(w) (m) @ t=960 w-intop_itm(w) (m) @ t=980 w-intop_itm(w) (m) @ t=1000 w-intop_itm(w) (m) @ t=1020 w-intop_itm(w) (m) @ t=1040 w-intop_itm(w) (m) @ t=1060 w-intop_itm(w) (m) @ t=1080 w-intop_itm(w) (m) @ t=1100 w-intop_itm(w) (m) @ t=1120 w-intop_itm(w) (m) @ t=1140 w-intop_itm(w) (m) @ t=1160 w-intop_itm(w) (m) @ t=1180 w-intop_itm(w) (m) @ t=1200 w-intop_itm(w) (m) @ t=1220 w-intop_itm(w) (m) @ t=1240 w-intop_itm(w) (m) @ t=1260 w-intop_itm(w) (m) @ t=1280 w-intop_itm(w) (m) @ t=1300 w-intop_itm(w) (m) @ t=1320 w-intop_itm(w) (m) @ t=1340 w-intop_itm(w) (m) @ t=1360 w-intop_itm(w) (m) @ t=1380 w-intop_itm(w) (m) @ t=1400 w-intop_itm(w) (m) @ t=1420 w-intop_itm(w) (m) @ t=1440 w-intop_itm(w) (m) @ t=1460 w-intop_itm(w) (m) @ t=1480 w-intop_itm(w) (m) @ t=1500 w-intop_itm(w) (m) @ t=1520 w-intop_itm(w) (m) @ t=1540 w-intop_itm(w) (m) @ t=1560 w-intop_itm(w) (m) @ t=1580 w-intop_itm(w) (m) @ t=1600 w-intop_itm(w) (m) @ t=1620 w-intop_itm(w) (m) @ t=1640 w-intop_itm(w) (m) @ t=1660 w-intop_itm(w) (m) @ t=1680 w-intop_itm(w) (m) @ t=1700 w-intop_itm(w) (m) @ t=1720 w-intop_itm(w) (m) @ t=1740 w-intop_itm(w) (m) @ t=1760 w-intop_itm(w) (m) @ t=1780 w-intop_itm(w) (m) @ t=1800 w-intop_itm(w) (m) @ t=1840 w-intop_itm(w) (m) @ t=1880 w-intop_itm(w) (m) @ t=1920 w-intop_itm(w) (m) @ t=1960 w-intop_itm(w) (m) @ t=2000 w-intop_itm(w) (m) @ t=2040 w-intop_itm(w) (m) @ t=2080 w-intop_itm(w) (m) @ t=2120 w-intop_itm(w) (m) @ t=2160 w-intop_itm(w) (m) @ t=2200 w-intop_itm(w) (m) @ t=2240 w-intop_itm(w) (m) @ t=2280 w-intop_itm(w) (m) @ t=2320 w-intop_itm(w) (m) @ t=2360 w-intop_itm(w) (m) @ t=2400 w-intop_itm(w) (m) @ t=2440 w-intop_itm(w) (m) @ t=2480 w-intop_itm(w) (m) @ t=2520 w-intop_itm(w) (m) @ t=2560 w-intop_itm(w) (m) @ t=2600 w-intop_itm(w) (m) @ t=2640 w-intop_itm(w) (m) @ t=2680 w-intop_itm(w) (m) @ t=2720 w-intop_itm(w) (m) @ t=2760 w-intop_itm(w) (m) @ t=2800 w-intop_itm(w) (m) @ t=2840 w-intop_itm(w) (m) @ t=2880 w-intop_itm(w) (m) @ t=2920 w-intop_itm(w) (m) @ t=2960 w-intop_itm(w) (m) @ t=3000 w-intop_itm(w) (m) @ t=3040 w-intop_itm(w) (m) @ t=3080 w-intop_itm(w) (m) @ t=3120 w-intop_itm(w) (m) @ t=3160 w-intop_itm(w) (m) @ t=3200 w-intop_itm(w) (m) @ t=3240 w-intop_itm(w) (m) @ t=3280 w-intop_itm(w) (m) @ t=3320 w-intop_itm(w) (m) @ t=3360 w-intop_itm(w) (m) @ t=3400 w-intop_itm(w) (m) @ t=3440 w-intop_itm(w) (m) @ t=3480 w-intop_itm(w) (m) @ t=3520 w-intop_itm(w) (m) @ t=3560 w-intop_itm(w) (m) @ t=3600 w-intop_itm(w) (m) @ t=3660 w-intop_itm(w) (m) @ t=3720 w-intop_itm(w) (m) @ t=3780 w-intop_itm(w) (m) @ t=3840 w-intop_itm(w) (m) @ t=3900 w-intop_itm(w) (m) @ t=3960 w-intop_itm(w) (m) @ t=4020 w-intop_itm(w) (m) @ t=4080 w-intop_itm(w) (m) @ t=4140 w-intop_itm(w) (m) @ t=4200 w-intop_itm(w) (m) @ t=4260 w-intop_itm(w) (m) @ t=4320 w-intop_itm(w) (m) @ t=4380 w-intop_itm(w) (m) @ t=4440 w-intop_itm(w) (m) @ t=4500 w-intop_itm(w) (m) @ t=4560 w-intop_itm(w) (m) @ t=4620 w-intop_itm(w) (m) @ t=4680 w-intop_itm(w) (m) @ t=4740 w-intop_itm(w) (m) @ t=4800 w-intop_itm(w) (m) @ t=4860 w-intop_itm(w) (m) @ t=4920 w-intop_itm(w) (m) @ t=4980 w-intop_itm(w) (m) @ t=5040 w-intop_itm(w) (m) @ t=5100 w-intop_itm(w) (m) @ t=5160 w-intop_itm(w) (m) @ t=5220 w-intop_itm(w) (m) @ t=5280 w-intop_itm(w) (m) @ t=5340 w-intop_itm(w) (m) @ t=5400 w-intop_itm(w) (m) @ t=5460 w-intop_itm(w) (m) @ t=5520 w-intop_itm(w) (m) @ t=5580 w-intop_itm(w) (m) @ t=5640 w-intop_itm(w) (m) @ t=5700 w-intop_itm(w) (m) @ t=5760 w-intop_itm(w) (m) @ t=5820 w-intop_itm(w) (m) @ t=5880 w-intop_itm(w) (m) @ t=5940 w-intop_itm(w) (m) @ t=6000 w-intop_itm(w) (m) @ t=6060 w-intop_itm(w) (m) @ t=6120 w-intop_itm(w) (m) @ t=6180 w-intop_itm(w) (m) @ t=6240 w-intop_itm(w) (m) @ t=6300 w-intop_itm(w) (m) @ t=6360 w-intop_itm(w) (m) @ t=6420 w-intop_itm(w) (m) @ t=6480 w-intop_itm(w) (m) @ t=6540 w-intop_itm(w) (m) @ t=6600 w-intop_itm(w) (m) @ t=6660 w-intop_itm(w) (m) @ t=6720 w-intop_itm(w) (m) @ t=6780 w-intop_itm(w) (m) @ t=6840 w-intop_itm(w) (m) @ t=6900 w-intop_itm(w) (m) @ t=6960 w-intop_itm(w) (m) @ t=7020 w-intop_itm(w) (m) @ t=7080 w-intop_itm(w) (m) @ t=7140 w-intop_itm(w) (m) @ t=7200 w-intop_itm(w) (m) @ t=7320 w-intop_itm(w) (m) @ t=7440 w-intop_itm(w) (m) @ t=7560 w-intop_itm(w) (m) @ t=7680 w-intop_itm(w) (m) @ t=7800 w-intop_itm(w) (m) @ t=7920 w-intop_itm(w) (m) @ t=8040 w-intop_itm(w) (m) @ t=8160 w-intop_itm(w) (m) @ t=8280 w-intop_itm(w) (m) @ t=8400 w-intop_itm(w) (m) @ t=8520 w-intop_itm(w) (m) @ t=8640 w-intop_itm(w) (m) @ t=8760 w-intop_itm(w) (m) @ t=8880 w-intop_itm(w) (m) @ t=9000 w-intop_itm(w) (m) @ t=9120 w-intop_itm(w) (m) @ t=9240 w-intop_itm(w) (m) @ t=9360 w-intop_itm(w) (m) @ t=9480 w-intop_itm(w) (m) @ t=9600 w-intop_itm(w) (m) @ t=9720 w-intop_itm(w) (m) @ t=9840 w-intop_itm(w) (m) @ t=9960 w-intop_itm(w) (m) @ t=10080 w-intop_itm(w) (m) @ t=10200 w-intop_itm(w) (m) @ t=10320 w-intop_itm(w) (m) @ t=10440 w-intop_itm(w) (m) @ t=10560 w-intop_itm(w) (m) @ t=10680 w-intop_itm(w) (m) @ t=10800 w-intop_itm(w) (m) @ t=10920 w-intop_itm(w) (m) @ t=11040 w-intop_itm(w) (m) @ t=11160 w-intop_itm(w) (m) @ t=11280 w-intop_itm(w) (m) @ t=11400 w-intop_itm(w) (m) @ t=11520 w-intop_itm(w) (m) @ t=11640 w-intop_itm(w) (m) @ t=11760 w-intop_itm(w) (m) @ t=11880 w-intop_itm(w) (m) @ t=12000 w-intop_itm(w) (m) @ t=12120 w-intop_itm(w) (m) @ t=12240 w-intop_itm(w) (m) @ t=12360 w-intop_itm(w) (m) @ t=12480 w-intop_itm(w) (m) @ t=12600 w-intop_itm(w) (m) @ t=12720 w-intop_itm(w) (m) @ t=12840 w-intop_itm(w) (m) @ t=12960 w-intop_itm(w) (m) @ t=13080 w-intop_itm(w) (m) @ t=13200 w-intop_itm(w) (m) @ t=13320 w-intop_itm(w) (m) @ t=13440 w-intop_itm(w) (m) @ t=13560 w-intop_itm(w) (m) @ t=13680 w-intop_itm(w) (m) @ t=13800 w-intop_itm(w) (m) @ t=13920 w-intop_itm(w) (m) @ t=14040 w-intop_itm(w) (m) @ t=14160 w-intop_itm(w) (m) @ t=14280 w-intop_itm(w) (m) @ t=14400 w-intop_itm(w) (m) @ t=14520 w-intop_itm(w) (m) @ t=14640 w-intop_itm(w) (m) @ t=14760 w-intop_itm(w) (m) @ t=14880 w-intop_itm(w) (m) @ t=15000 w-intop_itm(w) (m) @ t=15120 w-intop_itm(w) (m) @ t=15240 w-intop_itm(w) (m) @ t=15360 w-intop_itm(w) (m) @ t=15480 w-intop_itm(w) (m) @ t=15600 w-intop_itm(w) (m) @ t=15720 w-intop_itm(w) (m) @ t=15840 w-intop_itm(w) (m) @ t=15960 w-intop_itm(w) (m) @ t=16080 w-intop_itm(w) (m) @ t=16200 w-intop_itm(w) (m) @ t=16320 w-intop_itm(w) (m) @ t=16440 w-intop_itm(w) (m) @ t=16560 w-intop_itm(w) (m) @ t=16680 w-intop_itm(w) (m) @ t=16800 w-intop_itm(w) (m) @ t=16920 w-intop_itm(w) (m) @ t=17040 w-intop_itm(w) (m) @ t=17160 w-intop_itm(w) (m) @ t=17280 w-intop_itm(w) (m) @ t=17400 w-intop_itm(w) (m) @ t=17520 w-intop_itm(w) (m) @ t=17640 w-intop_itm(w) (m) @ t=17760 w-intop_itm(w) (m) @ t=17880 w-intop_itm(w) (m) @ t=18000 w-intop_itm(w) (m) @ t=18300 w-intop_itm(w) (m) @ t=18600 w-intop_itm(w) (m) @ t=18900 w-intop_itm(w) (m) @ t=19200 w-intop_itm(w) (m) @ t=19500 w-intop_itm(w) (m) @ t=19800 w-intop_itm(w) (m) @ t=20100 w-intop_itm(w) (m) @ t=20400 w-intop_itm(w) (m) @ t=20700 w-intop_itm(w) (m) @ t=21000 w-intop_itm(w) (m) @ t=21300 w-intop_itm(w) (m) @ t=21600 w-intop_itm(w) (m) @ t=21900 w-intop_itm(w) (m) @ t=22200 w-intop_itm(w) (m) @ t=22500 w-intop_itm(w) (m) @ t=22800 w-intop_itm(w) (m) @ t=23100 w-intop_itm(w) (m) @ t=23400 w-intop_itm(w) (m) @ t=23700 w-intop_itm(w) (m) @ t=24000 w-intop_itm(w) (m) @ t=24300 w-intop_itm(w) (m) @ t=24600 w-intop_itm(w) (m) @ t=24900 w-intop_itm(w) (m) @ t=25200 w-intop_itm(w) (m) @ t=25500 w-intop_itm(w) (m) @ t=25800 w-intop_itm(w) (m) @ t=26100 w-intop_itm(w) (m) @ t=26400 w-intop_itm(w) (m) @ t=26700 w-intop_itm(w) (m) @ t=27000 w-intop_itm(w) (m) @ t=27300 w-intop_itm(w) (m) @ t=27600 w-intop_itm(w) (m) @ t=27900 w-intop_itm(w) (m) @ t=28200 w-intop_itm(w) (m) @ t=28500 w-intop_itm(w) (m) @ t=28800 w-intop_itm(w) (m) @ t=29100 w-intop_itm(w) (m) @ t=29400 w-intop_itm(w) (m) @ t=29700 w-intop_itm(w) (m) @ t=30000 w-intop_itm(w) (m) @ t=30300 w-intop_itm(w) (m) @ t=30600 w-intop_itm(w) (m) @ t=30900 w-intop_itm(w) (m) @ t=31200 w-intop_itm(w) (m) @ t=31500 w-intop_itm(w) (m) @ t=31800 w-intop_itm(w) (m) @ t=32100 w-intop_itm(w) (m) @ t=32400 w-intop_itm(w) (m) @ t=32700 w-intop_itm(w) (m) @ t=33000 w-intop_itm(w) (m) @ t=33300 w-intop_itm(w) (m) @ t=33600 w-intop_itm(w) (m) @ t=33900 w-intop_itm(w) (m) @ t=34200 w-intop_itm(w) (m) @ t=34500 w-intop_itm(w) (m) @ t=34800 w-intop_itm(w) (m) @ t=35100 w-intop_itm(w) (m) @ t=35400 w-intop_itm(w) (m) @ t=35700 w-intop_itm(w) (m) @ t=36000
0.16215507985245614       0.2                      -8.471646189678724E-17   -8.042528083087653E-15   -1.5151244468376293E-14  -1.8863579910056033E-14  -2.283382740550168E-14   -2.760125761258742E-14   -3.295485157823206E-14   -3.889460930243558E-14   -1.5361146775992307E-13  -2.9543467683694777E-13  -4.3725788591397224E-13  -5.790810949909969E-13   -7.209043040680216E-13   -8.627275131450462E-13   -1.0045507222220708E-12  -1.1521279257807588E-12  -1.525857751029131E-12   -2.0987929879975167E-12  -4.6926815478181575E-12  -1.055272092012761E-11   -1.645378948536141E-11   -2.2394451525099762E-11  -2.788639358347571E-11   -3.314665809564925E-11   -3.813415924474843E-11   -4.2309842116932506E-11  -4.641349608560471E-11   -5.0517150054276916E-11  -5.426572006260867E-11   -5.7955638731898216E-11  -6.164555740118776E-11   -6.488887699108335E-11   -6.801912922524217E-11   -7.114938145940098E-11   -7.42796336935598E-11    -7.740988592771861E-11   -8.054013816187743E-11   -8.668442391439552E-11   -9.527986791644203E-11   -1.170194363851251E-10   -1.5087856293576118E-10  -1.8227637745664414E-10  -2.126576855724505E-10   -2.42094994753904E-10    -2.704713198444107E-10   -2.979606720038033E-10   -3.244445046690332E-10   -3.500643086559939E-10   -3.746918049656059E-10   -3.98362404737031E-10    -4.211902088632597E-10   -4.4325109996195707E-10  -4.6449148811514405E-10  -4.849113733228207E-10   -5.045107555849871E-10   -5.234803359907662E-10   -5.435688246646294E-10   -5.733146326756775E-10   -6.283893137723715E-10   -6.912679382543022E-10   -7.51511815685365E-10    -8.087924759299086E-10   -8.634592221127416E-10   -9.157437571218906E-10   -9.658470141837392E-10   -1.0140298480889775E-9   -1.0605504587801946E-9   -1.1056045346894371E-9   -1.171666632940445E-9    -1.2632713494566482E-9   -1.3731900334948106E-9   -1.493041878678917E-9    -1.6098813394128461E-9   -1.7357096665755283E-9   -1.8557338187333836E-9   -1.969790314900527E-9    -2.0792989728284364E-9   -2.1838368831821666E-9   -2.2844117900114005E-9   -2.3809392204893833E-9   -2.473968399981377E-9    -2.5634419462468195E-9   -2.6500197993561307E-9   -2.7336129903371562E-9   -2.8145040677886107E-9   -2.8929256205342575E-9   -2.9691842562174146E-9   -3.0434963383270743E-9   -3.115969577613174E-9    -3.1867884184064286E-9   -3.255943335301985E-9    -3.39059694508292E-9     -3.5199456053733717E-9   -3.643955010577605E-9    -3.762894912037104E-9    -3.877498180789918E-9    -3.987712754874157E-9    -4.093844907544625E-9    -4.196666206094072E-9    -4.296696476337607E-9    -4.393859431784959E-9    -4.488176540858556E-9    -4.5802388564402086E-9   -4.669910077664032E-9    -4.757234529676775E-9    -4.842186330695647E-9    -4.924742569501988E-9    -5.004911555130344E-9    -5.082693287580714E-9    -5.1581337602526235E-9   -5.231249202087649E-9    -5.3020143703756E-9      -5.370429265116476E-9    -5.437786341002268E-9    -5.50354222359219E-9     -5.567578190721467E-9    -5.63002071486855E-9     -5.691416479924935E-9    -5.7514057839724426E-9   -5.809988627011074E-9    -5.867213093113556E-9    -5.923108998085645E-9    -5.977642440830132E-9    -6.0308134213470216E-9   -6.083609909871239E-9    -6.135725040964828E-9    -6.1870032900258095E-9   -6.237335211969055E-9    -6.28595392304776E-9     -6.333339542471124E-9    -6.379492070239145E-9    -6.424691649163492E-9    -6.469207339326857E-9    -6.512786096651218E-9    -6.555427921136575E-9    -6.597398563894972E-9    -6.658981594767972E-9    -6.718798724462732E-9    -6.776684447819002E-9    -6.8327106336590944E-9   -6.886971138772643E-9    -6.939518139137074E-9    -6.9903504680456996E-9   -7.039821620192848E-9    -7.087770478692394E-9    -7.134197043544341E-9    -7.179101314748686E-9    -7.222712704362839E-9    -7.265860979218239E-9    -7.307892334379671E-9    -7.348806769847132E-9    -7.388604285620625E-9    -7.427249767671631E-9    -7.464668826572566E-9    -7.50092663012432E-9     -7.536023178326893E-9    -7.569958471180284E-9    -7.60322112967427E-9     -7.636428495494275E-9    -7.668951314809777E-9    -7.700789587620772E-9    -7.731943313927264E-9    -7.76234263076918E-9     -7.791937920591485E-9    -7.820793430992371E-9    -7.848909161971846E-9    -7.876285113529906E-9    -7.903078352094707E-9    -7.929339565787195E-9    -7.954964902198055E-9    -7.979954361327288E-9    -8.004307943174893E-9    -8.027412672985168E-9    -8.049246487340625E-9    -8.070097204842066E-9    -8.089964825489492E-9    -8.108849349282901E-9    -8.128262475073454E-9    -8.147924714992838E-9    -8.1673500105902E-9      -8.186538361865544E-9    -8.205489768818868E-9    -8.222627051869946E-9    -8.239351682774495E-9    -8.256076313679042E-9    -8.272800944583591E-9    -8.289255311816033E-9    -8.30526281109022E-9     -8.321270310364408E-9    -8.337277809638598E-9    -8.353285308912785E-9    -8.369021029073501E-9    -8.384742945190598E-9    -8.400464861307697E-9    -8.416186777424796E-9    -8.431126474313283E-9    -8.458082492915127E-9    -8.482638008933835E-9    -8.50718353916654E-9     -8.532271643992827E-9    -8.556144173740237E-9    -8.578750806334869E-9    -8.60080412001302E-9     -8.620865625115301E-9    -8.640927130217582E-9    -8.659557276769027E-9    -8.678168153115023E-9    -8.694568719046548E-9    -8.710256015375839E-9    -8.726913142537663E-9    -8.744446535035962E-9    -8.7614684848711E-9      -8.777266138720836E-9    -8.792978216339045E-9    -8.807438050302027E-9    -8.82189788426501E-9     -8.83357139562202E-9     -8.844687427138711E-9    -8.857777846358556E-9    -8.87217036735283E-9     -8.884806156988925E-9    -8.8944750775384E-9      -8.904870512111922E-9    -8.916533779908756E-9    -8.926564175939873E-9    -8.935298157673852E-9    -8.942918954850341E-9    -8.950169824129049E-9    -8.958755076134124E-9    -8.967952284478982E-9    -8.980507035235247E-9    -8.9912132843462E-9      -8.998166569742723E-9    -9.007707867719174E-9    -9.019546232606492E-9    -9.022504013466452E-9    -9.025357155280705E-9    -9.029669195225106E-9    -9.035103542005124E-9    -9.041432287436642E-9    -9.0489005491244E-9      -9.05504768739184E-9     -9.060098978784693E-9    -9.067448719885857E-9    -9.076017344390358E-9    -9.08513503228307E-9     -9.094425800346414E-9    -9.101223245868157E-9    -9.107638823220652E-9    -9.114054400573147E-9    -9.120168960513452E-9    -9.122863976116091E-9    -9.125558991718726E-9    -9.127254757552902E-9    -9.127289975752909E-9    -9.127325193952915E-9    -9.134474550834854E-9    -9.140985728665958E-9    -9.145720487150489E-9    -9.148568773852437E-9    -9.153573272200122E-9    -9.154637827991154E-9    -9.159237440072698E-9    -9.166024597951458E-9    -9.171408374544967E-9    -9.177084857853489E-9    -9.17519514891628E-9     -9.17475755863992E-9     -9.179793171955615E-9    -9.182609714547931E-9    -9.186895377223222E-9    -9.192777428162206E-9    -9.194439806709923E-9    -9.197915294922605E-9    -9.20077852364687E-9     -9.202167407705875E-9    -9.210405269157166E-9    -9.211720169743583E-9    -9.215538584569723E-9    -9.21601135010399E-9     -9.215480177991198E-9    -9.2161367692963E-9      -9.216809737458627E-9    -9.217534371889032E-9    -9.220068730217758E-9    -9.225482417863137E-9    -9.232506956411073E-9    -9.230198789458211E-9    -9.23907421884076E-9     -9.245257591381086E-9    -9.255916262176128E-9    -9.26433339336536E-9     -9.274681452661684E-9    -9.277105637523927E-9    -9.280627017596993E-9    -9.281271537962923E-9    -9.291666150157115E-9    -9.30332584340097E-9     -9.312388531509453E-9    -9.314079078427936E-9    -9.311204696149228E-9    -9.310385607200823E-9    -9.310730439222236E-9    -9.307726783113457E-9    -9.314076039489574E-9    -9.317736156716163E-9    -9.322797579677473E-9    -9.320793585521831E-9    -9.327547654582291E-9    -9.335459865320287E-9    -9.327678602356647E-9    -9.330747249342892E-9    -9.335536393503743E-9    -9.334530064322682E-9    -9.345524495426013E-9    -9.341899178025854E-9    -9.34626990892263E-9     -9.345955411735136E-9    -9.352209700792051E-9    -9.35358629468225E-9     -9.354865461090763E-9    -9.354533637376565E-9    -9.353712323578742E-9    -9.3534000990141E-9      -9.353337837350953E-9    -9.353406647417877E-9    -9.353571562047967E-9    -9.355251135187586E-9    -9.358550495449167E-9    -9.361849855710745E-9    -9.365149215972324E-9    -9.367992884992743E-9    -9.369751547987746E-9    -9.371510210982749E-9    -9.373296737722157E-9    -9.375199676431726E-9    -9.377102615141294E-9    -9.379072137641101E-9    -9.381710911268023E-9    -9.384349684894945E-9    -9.386988458521868E-9    -9.393776653346561E-9    -9.40061589919972E-9     -9.407455145052877E-9    -9.400189300615621E-9    -9.394294323677205E-9
0.17                      0.2                      -8.535461550161076E-17   -8.116509034919106E-15   -1.5292399374614646E-14  -1.9047233395422355E-14  -2.3062867897378826E-14  -2.7884612977431465E-14  -3.329908642373129E-14   -3.9306288236278304E-14  -1.5535271634566515E-13  -2.9882004177432496E-13  -4.4228736720298467E-13  -5.857546926316445E-13   -7.292220180603044E-13   -8.72689343488964E-13    -1.0161566689176237E-12  -1.1654686951639404E-12  -1.5431503132260018E-12  -2.1219696605634978E-12  -4.740638416918224E-12   -1.0655996774798949E-11  -1.6615377584292018E-11  -2.2617240385052984E-11  -2.8170551757181884E-11  -3.3491699952683806E-11  -3.8539483468068954E-11  -4.277215175433364E-11   -4.6932498613674453E-11  -5.1092845473015274E-11  -5.489755595838676E-11   -5.864352385925675E-11   -6.238949176012675E-11   -6.568809976152008E-11   -6.887344778717598E-11   -7.205879581283189E-11   -7.524414383848782E-11   -7.842949186414373E-11   -8.161483988979963E-11   -8.784210580123009E-11   -9.654254621670026E-11   -1.1850215978449007E-10  -1.5270054370613902E-10  -1.844378313257622E-10   -2.1516877387086113E-10  -2.4495954432281E-10     -2.736908999613755E-10   -3.015356407738928E-10   -3.283739913386706E-10   -3.543475649989478E-10   -3.793275342662297E-10   -4.033494616889903E-10   -4.2652676783458334E-10  -4.48934826477714E-10    -4.705204070561205E-10   -4.912835095698027E-10   -5.112241340187608E-10   -5.305337927283274E-10   -5.50976060492727E-10    -5.811607393338577E-10   -6.368982596683288E-10   -7.005366607894492E-10   -7.615493418905022E-10   -8.195985742412213E-10   -8.750315752946445E-10   -9.280795273671234E-10   -9.789433048976898E-10   -1.0278839306481364E-9   -1.0751602148660576E-9   -1.1209681622483377E-9   -1.1879650365734384E-9   -1.280751843309109E-9    -1.3920459841824961E-9   -1.5134211974855059E-9   -1.631802840650663E-9    -1.759294178681664E-9    -1.8809894047758414E-9   -1.996703290981095E-9    -2.1078580104871046E-9   -2.2140285809228485E-9   -2.3162263682724293E-9   -2.414366464528555E-9    -2.5089983182019917E-9   -2.6000646807457835E-9   -2.688226408563011E-9    -2.7733940170004096E-9   -2.855849701785831E-9    -2.9358274417069604E-9   -3.013634940016775E-9    -3.089489419898164E-9    -3.1634990022900472E-9   -3.2358483450251017E-9   -3.30652792407307E-9     -3.4442179098943627E-9   -3.57658331007461E-9     -3.703583257070314E-9    -3.825489434239511E-9    -3.943033892617559E-9    -4.05616332282715E-9     -4.165181895600497E-9    -4.270866078462886E-9    -4.373737972514972E-9    -4.473718022977249E-9    -4.570827508087416E-9    -4.665658943714041E-9    -4.758075505052794E-9    -4.84811841449724E-9     -4.935761370636291E-9    -5.020975920665437E-9    -5.103772383343321E-9    -5.184150758669944E-9    -5.262153438461501E-9    -5.3377953808275305E-9   -5.411053319726783E-9    -5.481927255159262E-9    -5.551714572548756E-9    -5.619869824473782E-9    -5.686273835842928E-9    -5.751053500445468E-9    -5.81475732331094E-9     -5.877024404265907E-9    -5.937854743310371E-9    -5.9972955207919116E-9   -6.0553759921375194E-9   -6.112062893410533E-9    -6.167356224610951E-9    -6.222252483506165E-9    -6.276442155990382E-9    -6.329768375071897E-9    -6.382120648391601E-9    -6.432724753934429E-9    -6.482065405143799E-9    -6.530142602019715E-9    -6.577238818685733E-9    -6.6236253543074115E-9   -6.669047059006965E-9    -6.713503932784388E-9    -6.75726490416127E-9     -6.821485708086842E-9    -6.8838820266064665E-9   -6.9442886786358854E-9   -7.002777392270923E-9    -7.059443742413104E-9    -7.114340860156345E-9    -7.167467571259826E-9    -7.2191839586060755E-9   -7.26932590252453E-9     -7.31789340301519E-9     -7.364886460078056E-9    -7.410538147724607E-9    -7.455691477809504E-9    -7.499682209138548E-9    -7.54251034171174E-9     -7.584175875529078E-9    -7.624645847382128E-9    -7.663850424377592E-9    -7.701850782629249E-9    -7.7386469221371E-9      -7.774238842901147E-9    -7.809123547925187E-9    -7.843928969038684E-9    -7.878015057921027E-9    -7.911381814572216E-9    -7.944029238992251E-9    -7.975891093316007E-9    -8.006920334576568E-9    -8.037177876650764E-9    -8.066663719538596E-9    -8.095377863240061E-9    -8.123483013748896E-9    -8.151031679173839E-9    -8.177916278221688E-9    -8.204136810892449E-9    -8.229693277186119E-9    -8.253969046292652E-9    -8.27694192319852E-9     -8.298901443182794E-9    -8.319847606245475E-9    -8.339780412386566E-9    -8.3602307373288E-9      -8.380915547720609E-9    -8.401342619147283E-9    -8.421511951608818E-9    -8.44142354510522E-9     -8.459441651249082E-9    -8.477030594202013E-9    -8.494619537154947E-9    -8.512208480107879E-9    -8.529504152524958E-9    -8.546314916243248E-9    -8.563125679961537E-9    -8.579936443679827E-9    -8.596747207398118E-9    -8.613240246007401E-9    -8.629717146911303E-9    -8.646194047815203E-9    -8.662670948719104E-9    -8.67834791323987E-9     -8.706712253073424E-9    -8.732621719280992E-9    -8.758483064732167E-9    -8.78485260272321E-9     -8.809928470900472E-9    -8.833680206525622E-9    -8.856857789607378E-9    -8.87796856830972E-9     -8.899079347012065E-9    -8.918680306454605E-9    -8.938260939384758E-9    -8.955560407637413E-9    -8.972123741539214E-9    -8.98964058779195E-9     -9.008018955243015E-9    -9.025867428932061E-9    -9.042447438231528E-9    -9.058938195226108E-9    -9.074122916297956E-9    -9.089307637369803E-9    -9.101637362776042E-9    -9.113395868423173E-9    -9.127128939193327E-9    -9.142164228745697E-9    -9.155411779791009E-9    -9.165640095091001E-9    -9.176592334648282E-9    -9.188807888049732E-9    -9.19935825923658E-9     -9.208586563329319E-9    -9.216666845420898E-9    -9.224365622610492E-9    -9.233389126647517E-9    -9.243028065538676E-9    -9.256050116848445E-9    -9.267198636965443E-9    -9.274543376543684E-9    -9.284496989652672E-9    -9.29676593462927E-9     -9.300046751146987E-9    -9.303207602362632E-9    -9.30781914699463E-9     -9.313553242245417E-9    -9.320185682965338E-9    -9.327962668418276E-9    -9.33439699791822E-9     -9.33971761971523E-9     -9.3473557124221E-9      -9.356222775603948E-9    -9.365644272242598E-9    -9.375240541848029E-9    -9.382303243601218E-9    -9.388977913360451E-9    -9.395652583119683E-9    -9.402021025484075E-9    -9.404910738340937E-9    -9.407800451197795E-9    -9.40966893418098E-9     -9.409840343115011E-9    -9.410011752049043E-9    -9.417365545398795E-9    -9.424075761280211E-9    -9.42899071897686E-9     -9.431995520022815E-9    -9.437172936890013E-9    -9.438363240555482E-9    -9.4431211252671E-9      -9.450088485672284E-9    -9.455640508489485E-9    -9.461487505916326E-9    -9.45968520337469E-9     -9.459333240954575E-9    -9.464505342417114E-9    -9.467436634941341E-9    -9.471850788749883E-9    -9.477876757804348E-9    -9.479642049950193E-9    -9.483232233886133E-9    -9.486200678487326E-9    -9.487676881579545E-9    -9.496072476680582E-9    -9.497477165304755E-9    -9.50140589117267E-9     -9.501952086666316E-9    -9.50147443953794E-9     -9.502185878587021E-9    -9.502911971607149E-9    -9.50368429547524E-9     -9.506287414340951E-9    -9.511803387324535E-9    -9.519015326166645E-9    -9.516751874124671E-9    -9.52580241968391E-9     -9.532128146329855E-9    -9.542987347133748E-9    -9.551595945397725E-9    -9.562166449866193E-9    -9.564717640347055E-9    -9.5683536930392E-9      -9.56906130738162E-9     -9.579619424934263E-9    -9.591490473399943E-9    -9.600746743898354E-9    -9.602543844980092E-9    -9.59968510710787E-9     -9.598864808867616E-9    -9.59921656462854E-9     -9.596158071254578E-9    -9.602561890914939E-9    -9.60625815916039E-9     -9.611379519808558E-9    -9.60934575948445E-9     -9.616167711333971E-9    -9.624184042635225E-9    -9.61631230772783E-9     -9.619395782762885E-9    -9.62422445149784E-9     -9.623196185248408E-9    -9.634314217177437E-9    -9.63064540835992E-9     -9.63505599215781E-9     -9.634724890323985E-9    -9.64103791342806E-9     -9.642427229582702E-9    -9.643712895910478E-9    -9.643354052344137E-9    -9.642495834639272E-9    -9.642145977611286E-9    -9.64204572576353E-9     -9.642076071789378E-9    -9.642202174936822E-9    -9.643872971202257E-9    -9.647195673824253E-9    -9.650518376446247E-9    -9.653841079068243E-9    -9.656703577050253E-9    -9.65847032255295E-9     -9.660237068055644E-9    -9.662032246504285E-9    -9.663946214990854E-9    -9.665860183477422E-9    -9.667842150345266E-9    -9.670507586765505E-9    -9.673173023185747E-9    -9.675838459605986E-9    -9.682737128677707E-9    -9.689687879924332E-9    -9.69663863117096E-9     -9.689290125286264E-9    -9.683302530406165E-9