% Model:              aplus_itmcp_2d.mph
% Version:            COMSOL 6.1.0.357
% Date:               Jul 22 2024, 11:11
% Dimension:          2
% Nodes:              31
% Expressions:        346
% Description:        
% Length unit:        m
% R                       Z                        w-intop_itm(w) (m) @ t=0 w-intop_itm(w) (m) @ t=20 w-intop_itm(w) (m) @ t=40 w-intop_itm(w) (m) @ t=60 w-intop_itm(w) (m) @ t=80 w-intop_itm(w) (m) @ t=100 w-intop_itm(w) (m) @ t=120 w-intop_itm(w) (m) @ t=140 w-intop_itm(w) (m) @ t=160 w-intop_itm(w) (m) @ t=180 w-intop_itm(w) (m) @ t=200 w-intop_itm(w) (m) @ t=220 w-intop_itm(w) (m) @ t=240 w-intop_itm(w) (m) @ t=260 w-intop_itm(w) (m) @ t=280 w-intop_itm(w) (m) @ t=300 w-intop_itm(w) (m) @ t=320 w-intop_itm(w) (m) @ t=340 w-intop_itm(w) (m) @ t=360 w-intop_itm(w) (m) @ t=380 w-intop_itm(w) (m) @ t=400 w-intop_itm(w) (m) @ t=420 w-intop_itm(w) (m) @ t=440 w-intop_itm(w) (m) @ t=460 w-intop_itm(w) (m) @ t=480 w-intop_itm(w) (m) @ t=500 w-intop_itm(w) (m) @ t=520 w-intop_itm(w) (m) @ t=540 w-intop_itm(w) (m) @ t=560 w-intop_itm(w) (m) @ t=580 w-intop_itm(w) (m) @ t=600 w-intop_itm(w) (m) @ t=620 w-intop_itm(w) (m) @ t=640 w-intop_itm(w) (m) @ t=660 w-intop_itm(w) (m) @ t=680 w-intop_itm(w) (m) @ t=700 w-intop_itm(w) (m) @ t=720 w-intop_itm(w) (m) @ t=740 w-intop_itm(w) (m) @ t=760 w-intop_itm(w) (m) @ t=780 w-intop_itm(w) (m) @ t=800 w-intop_itm(w) (m) @ t=820 w-intop_itm(w) (m) @ t=840 w-intop_itm(w) (m) @ t=860 w-intop_itm(w) (m) @ t=880 w-intop_itm(w) (m) @ t=900 w-intop_itm(w) (m) @ t=920 w-intop_itm(w) (m) @ t=940 w-intop_itm(w) (m) @ t=960 w-intop_itm(w) (m) @ t=980 w-intop_itm(w) (m) @ t=1000 w-intop_itm(w) (m) @ t=1020 w-intop_itm(w) (m) @ t=1040 w-intop_itm(w) (m) @ t=1060 w-intop_itm(w) (m) @ t=1080 w-intop_itm(w) (m) @ t=1100 w-intop_itm(w) (m) @ t=1120 w-intop_itm(w) (m) @ t=1140 w-intop_itm(w) (m) @ t=1160 w-intop_itm(w) (m) @ t=1180 w-intop_itm(w) (m) @ t=1200 w-intop_itm(w) (m) @ t=1220 w-intop_itm(w) (m) @ t=1240 w-intop_itm(w) (m) @ t=1260 w-intop_itm(w) (m) @ t=1280 w-intop_itm(w) (m) @ t=1300 w-intop_itm(w) (m) @ t=1320 w-intop_itm(w) (m) @ t=1340 w-intop_itm(w) (m) @ t=1360 w-intop_itm(w) (m) @ t=1380 w-intop_itm(w) (m) @ t=1400 w-intop_itm(w) (m) @ t=1420 w-intop_itm(w) (m) @ t=1440 w-intop_itm(w) (m) @ t=1460 w-intop_itm(w) (m) @ t=1480 w-intop_itm(w) (m) @ t=1500 w-intop_itm(w) (m) @ t=1520 w-intop_itm(w) (m) @ t=1540 w-intop_itm(w) (m) @ t=1560 w-intop_itm(w) (m) @ t=1580 w-intop_itm(w) (m) @ t=1600 w-intop_itm(w) (m) @ t=1620 w-intop_itm(w) (m) @ t=1640 w-intop_itm(w) (m) @ t=1660 w-intop_itm(w) (m) @ t=1680 w-intop_itm(w) (m) @ t=1700 w-intop_itm(w) (m) @ t=1720 w-intop_itm(w) (m) @ t=1740 w-intop_itm(w) (m) @ t=1760 w-intop_itm(w) (m) @ t=1780 w-intop_itm(w) (m) @ t=1800 w-intop_itm(w) (m) @ t=1840 w-intop_itm(w) (m) @ t=1880 w-intop_itm(w) (m) @ t=1920 w-intop_itm(w) (m) @ t=1960 w-intop_itm(w) (m) @ t=2000 w-intop_itm(w) (m) @ t=2040 w-intop_itm(w) (m) @ t=2080 w-intop_itm(w) (m) @ t=2120 w-intop_itm(w) (m) @ t=2160 w-intop_itm(w) (m) @ t=2200 w-intop_itm(w) (m) @ t=2240 w-intop_itm(w) (m) @ t=2280 w-intop_itm(w) (m) @ t=2320 w-intop_itm(w) (m) @ t=2360 w-intop_itm(w) (m) @ t=2400 w-intop_itm(w) (m) @ t=2440 w-intop_itm(w) (m) @ t=2480 w-intop_itm(w) (m) @ t=2520 w-intop_itm(w) (m) @ t=2560 w-intop_itm(w) (m) @ t=2600 w-intop_itm(w) (m) @ t=2640 w-intop_itm(w) (m) @ t=2680 w-intop_itm(w) (m) @ t=2720 w-intop_itm(w) (m) @ t=2760 w-intop_itm(w) (m) @ t=2800 w-intop_itm(w) (m) @ t=2840 w-intop_itm(w) (m) @ t=2880 w-intop_itm(w) (m) @ t=2920 w-intop_itm(w) (m) @ t=2960 w-intop_itm(w) (m) @ t=3000 w-intop_itm(w) (m) @ t=3040 w-intop_itm(w) (m) @ t=3080 w-intop_itm(w) (m) @ t=3120 w-intop_itm(w) (m) @ t=3160 w-intop_itm(w) (m) @ t=3200 w-intop_itm(w) (m) @ t=3240 w-intop_itm(w) (m) @ t=3280 w-intop_itm(w) (m) @ t=3320 w-intop_itm(w) (m) @ t=3360 w-intop_itm(w) (m) @ t=3400 w-intop_itm(w) (m) @ t=3440 w-intop_itm(w) (m) @ t=3480 w-intop_itm(w) (m) @ t=3520 w-intop_itm(w) (m) @ t=3560 w-intop_itm(w) (m) @ t=3600 w-intop_itm(w) (m) @ t=3660 w-intop_itm(w) (m) @ t=3720 w-intop_itm(w) (m) @ t=3780 w-intop_itm(w) (m) @ t=3840 w-intop_itm(w) (m) @ t=3900 w-intop_itm(w) (m) @ t=3960 w-intop_itm(w) (m) @ t=4020 w-intop_itm(w) (m) @ t=4080 w-intop_itm(w) (m) @ t=4140 w-intop_itm(w) (m) @ t=4200 w-intop_itm(w) (m) @ t=4260 w-intop_itm(w) (m) @ t=4320 w-intop_itm(w) (m) @ t=4380 w-intop_itm(w) (m) @ t=4440 w-intop_itm(w) (m) @ t=4500 w-intop_itm(w) (m) @ t=4560 w-intop_itm(w) (m) @ t=4620 w-intop_itm(w) (m) @ t=4680 w-intop_itm(w) (m) @ t=4740 w-intop_itm(w) (m) @ t=4800 w-intop_itm(w) (m) @ t=4860 w-intop_itm(w) (m) @ t=4920 w-intop_itm(w) (m) @ t=4980 w-intop_itm(w) (m) @ t=5040 w-intop_itm(w) (m) @ t=5100 w-intop_itm(w) (m) @ t=5160 w-intop_itm(w) (m) @ t=5220 w-intop_itm(w) (m) @ t=5280 w-intop_itm(w) (m) @ t=5340 w-intop_itm(w) (m) @ t=5400 w-intop_itm(w) (m) @ t=5460 w-intop_itm(w) (m) @ t=5520 w-intop_itm(w) (m) @ t=5580 w-intop_itm(w) (m) @ t=5640 w-intop_itm(w) (m) @ t=5700 w-intop_itm(w) (m) @ t=5760 w-intop_itm(w) (m) @ t=5820 w-intop_itm(w) (m) @ t=5880 w-intop_itm(w) (m) @ t=5940 w-intop_itm(w) (m) @ t=6000 w-intop_itm(w) (m) @ t=6060 w-intop_itm(w) (m) @ t=6120 w-intop_itm(w) (m) @ t=6180 w-intop_itm(w) (m) @ t=6240 w-intop_itm(w) (m) @ t=6300 w-intop_itm(w) (m) @ t=6360 w-intop_itm(w) (m) @ t=6420 w-intop_itm(w) (m) @ t=6480 w-intop_itm(w) (m) @ t=6540 w-intop_itm(w) (m) @ t=6600 w-intop_itm(w) (m) @ t=6660 w-intop_itm(w) (m) @ t=6720 w-intop_itm(w) (m) @ t=6780 w-intop_itm(w) (m) @ t=6840 w-intop_itm(w) (m) @ t=6900 w-intop_itm(w) (m) @ t=6960 w-intop_itm(w) (m) @ t=7020 w-intop_itm(w) (m) @ t=7080 w-intop_itm(w) (m) @ t=7140 w-intop_itm(w) (m) @ t=7200 w-intop_itm(w) (m) @ t=7320 w-intop_itm(w) (m) @ t=7440 w-intop_itm(w) (m) @ t=7560 w-intop_itm(w) (m) @ t=7680 w-intop_itm(w) (m) @ t=7800 w-intop_itm(w) (m) @ t=7920 w-intop_itm(w) (m) @ t=8040 w-intop_itm(w) (m) @ t=8160 w-intop_itm(w) (m) @ t=8280 w-intop_itm(w) (m) @ t=8400 w-intop_itm(w) (m) @ t=8520 w-intop_itm(w) (m) @ t=8640 w-intop_itm(w) (m) @ t=8760 w-intop_itm(w) (m) @ t=8880 w-intop_itm(w) (m) @ t=9000 w-intop_itm(w) (m) @ t=9120 w-intop_itm(w) (m) @ t=9240 w-intop_itm(w) (m) @ t=9360 w-intop_itm(w) (m) @ t=9480 w-intop_itm(w) (m) @ t=9600 w-intop_itm(w) (m) @ t=9720 w-intop_itm(w) (m) @ t=9840 w-intop_itm(w) (m) @ t=9960 w-intop_itm(w) (m) @ t=10080 w-intop_itm(w) (m) @ t=10200 w-intop_itm(w) (m) @ t=10320 w-intop_itm(w) (m) @ t=10440 w-intop_itm(w) (m) @ t=10560 w-intop_itm(w) (m) @ t=10680 w-intop_itm(w) (m) @ t=10800 w-intop_itm(w) (m) @ t=10920 w-intop_itm(w) (m) @ t=11040 w-intop_itm(w) (m) @ t=11160 w-intop_itm(w) (m) @ t=11280 w-intop_itm(w) (m) @ t=11400 w-intop_itm(w) (m) @ t=11520 w-intop_itm(w) (m) @ t=11640 w-intop_itm(w) (m) @ t=11760 w-intop_itm(w) (m) @ t=11880 w-intop_itm(w) (m) @ t=12000 w-intop_itm(w) (m) @ t=12120 w-intop_itm(w) (m) @ t=12240 w-intop_itm(w) (m) @ t=12360 w-intop_itm(w) (m) @ t=12480 w-intop_itm(w) (m) @ t=12600 w-intop_itm(w) (m) @ t=12720 w-intop_itm(w) (m) @ t=12840 w-intop_itm(w) (m) @ t=12960 w-intop_itm(w) (m) @ t=13080 w-intop_itm(w) (m) @ t=13200 w-intop_itm(w) (m) @ t=13320 w-intop_itm(w) (m) @ t=13440 w-intop_itm(w) (m) @ t=13560 w-intop_itm(w) (m) @ t=13680 w-intop_itm(w) (m) @ t=13800 w-intop_itm(w) (m) @ t=13920 w-intop_itm(w) (m) @ t=14040 w-intop_itm(w) (m) @ t=14160 w-intop_itm(w) (m) @ t=14280 w-intop_itm(w) (m) @ t=14400 w-intop_itm(w) (m) @ t=14520 w-intop_itm(w) (m) @ t=14640 w-intop_itm(w) (m) @ t=14760 w-intop_itm(w) (m) @ t=14880 w-intop_itm(w) (m) @ t=15000 w-intop_itm(w) (m) @ t=15120 w-intop_itm(w) (m) @ t=15240 w-intop_itm(w) (m) @ t=15360 w-intop_itm(w) (m) @ t=15480 w-intop_itm(w) (m) @ t=15600 w-intop_itm(w) (m) @ t=15720 w-intop_itm(w) (m) @ t=15840 w-intop_itm(w) (m) @ t=15960 w-intop_itm(w) (m) @ t=16080 w-intop_itm(w) (m) @ t=16200 w-intop_itm(w) (m) @ t=16320 w-intop_itm(w) (m) @ t=16440 w-intop_itm(w) (m) @ t=16560 w-intop_itm(w) (m) @ t=16680 w-intop_itm(w) (m) @ t=16800 w-intop_itm(w) (m) @ t=16920 w-intop_itm(w) (m) @ t=17040 w-intop_itm(w) (m) @ t=17160 w-intop_itm(w) (m) @ t=17280 w-intop_itm(w) (m) @ t=17400 w-intop_itm(w) (m) @ t=17520 w-intop_itm(w) (m) @ t=17640 w-intop_itm(w) (m) @ t=17760 w-intop_itm(w) (m) @ t=17880 w-intop_itm(w) (m) @ t=18000 w-intop_itm(w) (m) @ t=18300 w-intop_itm(w) (m) @ t=18600 w-intop_itm(w) (m) @ t=18900 w-intop_itm(w) (m) @ t=19200 w-intop_itm(w) (m) @ t=19500 w-intop_itm(w) (m) @ t=19800 w-intop_itm(w) (m) @ t=20100 w-intop_itm(w) (m) @ t=20400 w-intop_itm(w) (m) @ t=20700 w-intop_itm(w) (m) @ t=21000 w-intop_itm(w) (m) @ t=21300 w-intop_itm(w) (m) @ t=21600 w-intop_itm(w) (m) @ t=21900 w-intop_itm(w) (m) @ t=22200 w-intop_itm(w) (m) @ t=22500 w-intop_itm(w) (m) @ t=22800 w-intop_itm(w) (m) @ t=23100 w-intop_itm(w) (m) @ t=23400 w-intop_itm(w) (m) @ t=23700 w-intop_itm(w) (m) @ t=24000 w-intop_itm(w) (m) @ t=24300 w-intop_itm(w) (m) @ t=24600 w-intop_itm(w) (m) @ t=24900 w-intop_itm(w) (m) @ t=25200 w-intop_itm(w) (m) @ t=25500 w-intop_itm(w) (m) @ t=25800 w-intop_itm(w) (m) @ t=26100 w-intop_itm(w) (m) @ t=26400 w-intop_itm(w) (m) @ t=26700 w-intop_itm(w) (m) @ t=27000 w-intop_itm(w) (m) @ t=27300 w-intop_itm(w) (m) @ t=27600 w-intop_itm(w) (m) @ t=27900 w-intop_itm(w) (m) @ t=28200 w-intop_itm(w) (m) @ t=28500 w-intop_itm(w) (m) @ t=28800 w-intop_itm(w) (m) @ t=29100 w-intop_itm(w) (m) @ t=29400 w-intop_itm(w) (m) @ t=29700 w-intop_itm(w) (m) @ t=30000 w-intop_itm(w) (m) @ t=30300 w-intop_itm(w) (m) @ t=30600 w-intop_itm(w) (m) @ t=30900 w-intop_itm(w) (m) @ t=31200 w-intop_itm(w) (m) @ t=31500 w-intop_itm(w) (m) @ t=31800 w-intop_itm(w) (m) @ t=32100 w-intop_itm(w) (m) @ t=32400 w-intop_itm(w) (m) @ t=32700 w-intop_itm(w) (m) @ t=33000 w-intop_itm(w) (m) @ t=33300 w-intop_itm(w) (m) @ t=33600 w-intop_itm(w) (m) @ t=33900 w-intop_itm(w) (m) @ t=34200 w-intop_itm(w) (m) @ t=34500 w-intop_itm(w) (m) @ t=34800 w-intop_itm(w) (m) @ t=35100 w-intop_itm(w) (m) @ t=35400 w-intop_itm(w) (m) @ t=35700 w-intop_itm(w) (m) @ t=36000
0.16215507985245614       0.2                      -3.631906244455353E-17   -3.45633202288853E-15    -6.512336924537333E-15   -8.112309591005438E-15   -9.82332734143022E-15    -1.1877575351357451E-14  -1.418419855209531E-14   -1.674319694364379E-14   -6.616780534213972E-14   -1.2727095996375082E-13  -1.8837411458536197E-13  -2.4947726920697316E-13  -3.1058042382858434E-13  -3.716835784501955E-13   -4.3278673307180663E-13  -1.8255404070477773E-12  -4.1060610939266576E-12  -6.3865817808055375E-12  -8.667102467684417E-12   -1.0947623154563298E-11  -1.3228143841442177E-11  -1.5508664528321056E-11  -1.741625248493369E-11   -1.9136827151148725E-11  -2.0857401817363758E-11  -2.257797648357879E-11   -2.4298551149793824E-11  -2.5903791384352935E-11  -2.735583536825944E-11   -2.8807879352165947E-11  -3.025992333607246E-11   -3.1711967319978966E-11  -3.314318035721746E-11   -3.448728540267288E-11   -3.5831390448128304E-11  -3.714850609166446E-11   -3.8442710904919265E-11  -3.9681553031532755E-11  -4.363194111398819E-11   -5.4593614257542905E-11  -6.87073869787133E-11    -8.203306067266287E-11   -9.496795890851114E-11   -1.0758208946516512E-10  -1.1956552859591845E-10  -1.312934139618777E-10   -1.4242965513878494E-10  -1.5337608031129862E-10  -1.6389159081802025E-10  -1.7407095824744823E-10  -1.8390646803629257E-10  -1.9336448110572476E-10  -2.0246560738797852E-10  -2.1120984688305389E-10  -2.1972759392519606E-10  -2.2796769341130067E-10  -2.3957001124890895E-10  -2.586371259756706E-10   -2.8130360174493276E-10  -3.060180359770146E-10   -3.3068865283878543E-10  -3.548806157555988E-10   -3.7808793998754E-10     -4.004119391712035E-10   -4.218804966498895E-10   -4.426117516685609E-10   -4.6261781278462957E-10  -4.848491177471827E-10   -5.137091366168398E-10   -5.507002887766799E-10   -5.985527981991625E-10   -6.477292488167132E-10   -7.016026468025883E-10   -7.552685940338884E-10   -8.063020725113705E-10   -8.554193232040405E-10   -9.025764603334371E-10   -9.476977752634387E-10   -9.910968716860449E-10   -1.032763198835703E-9    -1.0729719101491534E-9   -1.1116137150816878E-9   -1.1490057607882925E-9   -1.1850599489153673E-9   -1.2200456661629146E-9   -1.2539870545366692E-9   -1.2870023972431283E-9   -1.3192067378617807E-9   -1.350647050264918E-9    -1.3815339177935104E-9   -1.4117614523628188E-9   -1.4702456880374745E-9   -1.5263948680791682E-9   -1.5800975597737258E-9   -1.6317088481427444E-9   -1.6811851493760063E-9   -1.7288913678338602E-9   -1.7749577715230583E-9   -1.8194912565024561E-9   -1.8627353306722842E-9   -1.904672663352724E-9    -1.9456143700285473E-9   -1.985428504067721E-9    -2.024206496033154E-9    -2.061911045668692E-9    -2.0985421529743346E-9   -2.134099817950081E-9    -2.168764241563614E-9    -2.2024756198885924E-9   -2.2351998196471904E-9   -2.266936840839409E-9    -2.2978938861561645E-9   -2.328243769990551E-9    -2.3577937950037273E-9   -2.386543961195694E-9    -2.414527873326535E-9    -2.442059261904581E-9    -2.468927571155828E-9    -2.4951328010802767E-9   -2.520674951677926E-9    -2.545750246158156E-9    -2.57031319185281E-9     -2.5943140554150237E-9   -2.6177528368447963E-9   -2.6406854037808834E-9   -2.663176401723329E-9    -2.6851624820262903E-9   -2.706643644689769E-9    -2.727630030465662E-9    -2.7483082046701545E-9   -2.768557071167341E-9    -2.788376629957221E-9    -2.807766881039795E-9    -2.826727824415062E-9    -2.845259460083023E-9    -2.8633617880436776E-9   -2.8897103280334604E-9   -2.915650767231114E-9    -2.9408569446502292E-9   -2.9652804760405846E-9   -2.9889213614021794E-9   -3.0117796007350153E-9   -3.0338762656077107E-9   -3.0554013741203456E-9   -3.0762100239137564E-9   -3.0963022149879432E-9   -3.1156779473429064E-9   -3.1343372209786454E-9   -3.152437089975388E-9    -3.170282430468734E-9    -3.187578247717928E-9    -3.204324541722969E-9    -3.2205213124838577E-9   -3.2361685600005933E-9   -3.2516906347671007E-9   -3.2672731919206526E-9   -3.2825708881230273E-9   -3.297583723374225E-9    -3.3123116976742455E-9   -3.326754811023089E-9    -3.3407104767550637E-9   -3.3542229347303205E-9   -3.3673626812621947E-9   -3.3801297163506847E-9   -3.392524039995792E-9    -3.4045456521975158E-9   -3.4165753060510354E-9   -3.4283895982257955E-9   -3.4399560640846584E-9   -3.4512747036276242E-9   -3.462345516854693E-9    -3.4731690050132724E-9   -3.4837496168896124E-9   -3.4940839559339567E-9   -3.5041720221463048E-9   -3.5140138155266573E-9   -3.5236093360750143E-9   -3.5329726086056976E-9   -3.5421306115319373E-9   -3.5510571765657006E-9   -3.5597523037069873E-9   -3.568215992955797E-9    -3.5764482443121306E-9   -3.5844490577759875E-9   -3.592218433347367E-9    -3.5997563710262703E-9   -3.607062870812698E-9    -3.614137932706647E-9    -3.6209815567081206E-9   -3.6280055280715346E-9   -3.6350467643061623E-9   -3.6419507864013274E-9   -3.64871759435703E-9     -3.6553471881732695E-9   -3.661839567850047E-9    -3.66819473338736E-9     -3.6804934220436E-9      -3.6922432541419885E-9   -3.703481379047923E-9    -3.714216767586959E-9    -3.7244243528754763E-9   -3.7341041349134745E-9   -3.743256113700954E-9    -3.751880289237914E-9    -3.76019538352343E-9     -3.768130941380243E-9    -3.775627010778252E-9    -3.782683591717463E-9    -3.789300684197872E-9    -3.795478288219483E-9    -3.802290052424469E-9    -3.809037058452124E-9    -3.8156770972770626E-9   -3.822210168899287E-9    -3.828636273318795E-9    -3.834907666605023E-9    -3.84075478825334E-9     -3.846392286662295E-9    -3.851820161831886E-9    -3.857038413762113E-9    -3.862047042452979E-9    -3.866816119874588E-9    -3.87130304416049E-9     -3.875553069061269E-9    -3.879566194576925E-9    -3.883342420707459E-9    -3.88688174745287E-9     -3.890028496595931E-9    -3.892998800498819E-9    -3.895969104401705E-9    -3.898939408304592E-9    -3.901909712207479E-9    -3.9048800161103655E-9   -3.907850320013252E-9    -3.91082062391614E-9     -3.913790927819027E-9    -3.917171804773426E-9    -3.920650347679566E-9    -3.924128890585705E-9    -3.927607433491845E-9    -3.931085976397984E-9    -3.9345645193041235E-9   -3.9380430622102636E-9   -3.940490125507766E-9    -3.9423443070715914E-9   -3.944198488635416E-9    -3.9460526701992415E-9   -3.947906851763067E-9    -3.949761033326892E-9    -3.951615214890718E-9    -3.953454865197282E-9    -3.955277605930463E-9    -3.957100346663643E-9    -3.958923087396824E-9    -3.960745828130005E-9    -3.962568568863185E-9    -3.964434460893712E-9    -3.96702833801326E-9     -3.969622215132808E-9    -3.972216092252357E-9    -3.9748099693719055E-9   -3.977403846491453E-9    -3.979997723611001E-9    -3.982069348851476E-9    -3.983859437821987E-9    -3.985649526792498E-9    -3.98743961576301E-9     -3.989229704733521E-9    -3.991019793704032E-9    -3.992577191663225E-9    -3.993411742830589E-9    -3.9942462939979535E-9   -3.995080845165317E-9    -3.995915396332682E-9    -3.996749947500046E-9    -3.997584498667409E-9    -3.998914400796206E-9    -4.000340558116314E-9    -4.001766715436423E-9    -4.003192872756531E-9    -4.00461903007664E-9     -4.006045187396748E-9    -4.007471344716857E-9    -4.008897502036965E-9    -4.0103236593570735E-9   -4.0117498166771815E-9   -4.01421159152082E-9     -4.014354287233173E-9    -4.014496982945525E-9    -4.014639678657878E-9    -4.015841189567234E-9    -4.021828864147363E-9    -4.027816538727492E-9    -4.03380421330762E-9     -4.0362966670442914E-9   -4.038026098909865E-9    -4.039592437458191E-9    -4.040771907082135E-9    -4.041942305898964E-9    -4.042754837761235E-9    -4.043567369623505E-9    -4.0444995351974666E-9   -4.045837297155045E-9    -4.047175059112624E-9    -4.047964321258215E-9    -4.048028952380691E-9    -4.048093583503168E-9    -4.048158214625644E-9    -4.048222845748121E-9    -4.048287476870598E-9    -4.049310529498672E-9    -4.050520317375869E-9    -4.051730105253067E-9    -4.052939893130264E-9    -4.054491990917509E-9    -4.057117927947475E-9    -4.059743864977441E-9    -4.062369802007407E-9    -4.064995739037373E-9    -4.065171167961696E-9    -4.064006699444144E-9    -4.062842230926591E-9    -4.061677762409039E-9    -4.060752669171442E-9    -4.064255574045112E-9    -4.0677584789187805E-9   -4.07126138379245E-9     -4.0726221837895205E-9   -4.073145454728549E-9    -4.0736687256675774E-9   -4.072254384441554E-9    -4.070427590038145E-9    -4.0686007956347355E-9   -4.068722768850255E-9    -4.068991265051765E-9    -4.0692814182005885E-9   -4.070157440490027E-9    -4.071033462779465E-9    -4.071659955136921E-9    -4.070769083650847E-9    -4.069878212164773E-9    -4.0689873406787E-9      -4.068096469192626E-9    -4.067205597706553E-9    -4.066899587129584E-9    -4.067668460177618E-9
0.17                      0.2                      -3.659935446393038E-17   -3.4888474043592603E-15  -6.57437584320774E-15    -8.193025837868808E-15   -9.923990179131508E-15   -1.2002107955344711E-14  -1.4335485610197987E-14  -1.6924123143691343E-14  -6.693297752966977E-14   -1.287585971469734E-13   -1.9058421676427705E-13  -2.524098363815807E-13   -3.1423545599888443E-13  -3.760610756161881E-13   -4.378866952334918E-13   -1.846935162157501E-12   -4.15413219395264E-12    -6.461329225747782E-12   -8.768526257542926E-12   -1.1075723289338067E-11  -1.338292032113321E-11   -1.569011735292835E-11   -1.7623180860346523E-11  -1.936862891928465E-11   -2.1114076978222777E-11  -2.285952503716091E-11   -2.4604973096099038E-11  -2.6234865071276525E-11  -2.7711266380067055E-11  -2.918766768885758E-11   -3.066406899764811E-11   -3.2140470306438633E-11  -3.359599874785361E-11   -3.496424389922825E-11   -3.633248905060289E-11   -3.767372467174849E-11   -3.8992022780874586E-11  -4.0254736242317795E-11  -4.4253102629186166E-11  -5.53269981707765E-11    -6.95882112572415E-11    -8.306244453317491E-11   -9.615060780683921E-11   -1.0891986313948217E-10  -1.2105903002652382E-10  -1.329427431505041E-10   -1.4423469110850718E-10  -1.5533644294495356E-10  -1.6600641718489345E-10  -1.7633957520223062E-10  -1.8632814359230734E-10  -1.9593822670060334E-10  -2.051905916577003E-10   -2.1408523846359825E-10  -2.2275293150188067E-10  -2.3114237049509823E-10  -2.4292640281886154E-10  -2.6224470658137395E-10  -2.852005421312341E-10   -3.102327972021457E-10   -3.3523119092658866E-10  -3.5975677345377347E-10  -3.832977815856996E-10   -4.0595518179467995E-10  -4.2775653135090627E-10  -4.4881994549247373E-10  -4.691570857983027E-10   -4.917437657774083E-10   -5.210227716994685E-10   -5.585143155365239E-10   -6.069774892506096E-10   -6.567978782810238E-10   -7.113880434749803E-10   -7.657901526494328E-10   -8.175553324470424E-10   -8.673995488394307E-10   -9.152786431077417E-10   -9.611161864406998E-10   -1.0052270350983733E-9   -1.0476005060885048E-9   -1.0885118770716798E-9   -1.1278518081616591E-9   -1.1659375625428238E-9   -1.202681009630484E-9    -1.2383523391890965E-9   -1.2729757622546222E-9   -1.3066700277549126E-9   -1.3395505921543006E-9   -1.371664542836527E-9    -1.4032231251457885E-9   -1.4341201181208075E-9   -1.4939364555318339E-9   -1.5514067733813144E-9   -1.6064203535478008E-9   -1.65933025381998E-9     -1.7100931392140539E-9   -1.7590744747190915E-9   -1.8064046372577776E-9   -1.8521907182876E-9      -1.896676542476765E-9    -1.9398448791374016E-9   -1.9820075646604205E-9   -2.0230319240723583E-9   -2.063006480197746E-9    -2.1018951190291287E-9   -2.139697840566506E-9    -2.176414644809878E-9    -2.2122239373816473E-9   -2.2470665101829977E-9   -2.2809085700065283E-9   -2.3137501168522385E-9   -2.3457982209314718E-9   -2.37722558614466E-9     -2.4078396383582217E-9   -2.4376403775721557E-9   -2.46666142227891E-9     -2.495216631190708E-9    -2.5230953624913234E-9   -2.5502976161807577E-9   -2.5768233922590094E-9   -2.602869355893956E-9    -2.6283899119531534E-9   -2.6533352150740618E-9   -2.6777052652566817E-9   -2.7015560821365205E-9   -2.7249524870919344E-9   -2.7478309591270653E-9   -2.7701914982419144E-9   -2.792044325327464E-9    -2.813577480065276E-9    -2.834668909335834E-9    -2.8553186131391358E-9   -2.875526591475183E-9    -2.8952928443439742E-9   -2.914617371745511E-9    -2.933500173679792E-9    -2.9609961413301103E-9   -2.988063664318018E-9    -3.014372140345622E-9    -3.0398725263177315E-9   -3.0645648222343443E-9   -3.0884490280954618E-9   -3.1115467523907673E-9   -3.1340528550392972E-9   -3.1558187414494687E-9   -3.176844411621281E-9    -3.197129865554734E-9    -3.216675103249828E-9    -3.235640050802886E-9    -3.254335159557532E-9    -3.2724600402640475E-9   -3.2900146929224327E-9   -3.3069991175326874E-9   -3.323413314094812E-9    -3.3396893003825812E-9   -3.3560160860006602E-9   -3.3720420878536978E-9   -3.387767305941694E-9    -3.403191740264648E-9    -3.4183153908225614E-9   -3.4329378118437694E-9   -3.4471027756707205E-9   -3.460880033626275E-9    -3.4742695857104327E-9   -3.487271431923194E-9    -3.4998855722645595E-9   -3.512501191114085E-9    -3.5248899381636747E-9   -3.5370186298888287E-9   -3.5488872662895475E-9   -3.560495847365831E-9    -3.5718453054480017E-9   -3.5829439153685257E-9   -3.5937853594761133E-9   -3.604369637770763E-9    -3.614696750252475E-9    -3.62476669692125E-9     -3.634595014708186E-9    -3.644211590764572E-9    -3.653587435409779E-9    -3.6627225486438063E-9   -3.6716169304666535E-9   -3.6802705808783205E-9   -3.688683499878808E-9    -3.696855687468116E-9    -3.704787143646244E-9    -3.7124778684131915E-9   -3.7199278617689596E-9   -3.7271371237135475E-9   -3.734526500934702E-9    -3.741929322272361E-9    -3.749187709368146E-9    -3.756301662222059E-9    -3.763271180834101E-9    -3.7700962652042704E-9   -3.776776915332567E-9    -3.789704912863547E-9    -3.802055173427035E-9    -3.813873648736432E-9    -3.825171435207526E-9    -3.835917526489618E-9    -3.846111922582707E-9    -3.855754623486792E-9    -3.864845629201874E-9    -3.873614309534836E-9    -3.881986779414804E-9    -3.889900168231495E-9    -3.8973544759849076E-9   -3.904349702675042E-9    -3.9108858483019E-9      -3.918060413950501E-9    -3.92515895391758E-9     -3.932138321451645E-9    -3.938998516552694E-9    -3.94573953922073E-9     -3.952314379007552E-9    -3.958457616623453E-9    -3.964380602857962E-9    -3.97008333771108E-9     -3.975565821182807E-9    -3.980828053273141E-9    -3.9858411426119775E-9   -3.990563962994365E-9    -3.995040200652298E-9    -3.999269855585777E-9    -4.003252927794801E-9    -4.006989417279371E-9    -4.0103027076965886E-9   -4.013420737040485E-9    -4.0165387663843815E-9   -4.019656795728278E-9    -4.022774825072175E-9    -4.025892854416072E-9    -4.029010883759968E-9    -4.032128913103865E-9    -4.035246942447761E-9    -4.038767362159522E-9    -4.04238350134947E-9     -4.045999640539417E-9    -4.049615779729365E-9    -4.0532319189193125E-9   -4.056848058109259E-9    -4.060464197299208E-9    -4.063022790722507E-9    -4.064973519906588E-9    -4.0669242490906696E-9   -4.068874978274751E-9    -4.070825707458831E-9    -4.072776436642913E-9    -4.074727165826994E-9    -4.076656192317402E-9    -4.078559964056297E-9    -4.080463735795191E-9    -4.082367507534085E-9    -4.0842712792729805E-9   -4.086175051011875E-9    -4.088122191792974E-9    -4.090800991133426E-9    -4.093479790473877E-9    -4.096158589814328E-9    -4.09883738915478E-9     -4.101516188495231E-9    -4.104194987835683E-9    -4.106340060177233E-9    -4.108197410225252E-9    -4.11005476027327E-9     -4.111912110321288E-9    -4.113769460369308E-9    -4.115626810417325E-9    -4.117245605369997E-9    -4.1181233369512545E-9   -4.119001068532512E-9    -4.119878800113768E-9    -4.120756531695025E-9    -4.1216342632762816E-9   -4.122511994857538E-9    -4.123884557036746E-9    -4.125353273291713E-9    -4.126821989546679E-9    -4.128290705801647E-9    -4.129759422056613E-9    -4.13122813831158E-9     -4.132696854566546E-9    -4.134165570821514E-9    -4.135634287076481E-9    -4.137103003331447E-9    -4.1396456259449274E-9   -4.13981548106409E-9     -4.139985336183252E-9    -4.140155191302415E-9    -4.141400802931548E-9    -4.147509158069831E-9    -4.153617513208114E-9    -4.159725868346398E-9    -4.162289124026198E-9    -4.164078469116886E-9    -4.165698382999861E-9    -4.1669163940324254E-9   -4.168124889599962E-9    -4.1689579753007424E-9   -4.169791061001521E-9    -4.1707441123040975E-9   -4.1721038852034496E-9   -4.173463658102802E-9    -4.174261479658084E-9    -4.174316899176951E-9    -4.174372318695817E-9    -4.174427738214684E-9    -4.1744831577335514E-9   -4.1745385772524185E-9   -4.175566950753591E-9    -4.1767848909571086E-9   -4.178002831160626E-9    -4.179220771364143E-9    -4.180789016578873E-9    -4.183456181973596E-9    -4.186123347368319E-9    -4.188790512763042E-9    -4.1914576781577645E-9   -4.1916283076061E-9      -4.19043387234789E-9     -4.18923943708968E-9     -4.188045001831471E-9    -4.1870939497182986E-9   -4.190645033777026E-9    -4.194196117835753E-9    -4.197747201894481E-9    -4.199127846665304E-9    -4.199659884072315E-9    -4.2001919214793265E-9   -4.198745043761519E-9    -4.196876920840089E-9    -4.195008797918659E-9    -4.195112124813014E-9    -4.195363680111275E-9    -4.195637396738276E-9    -4.1965106271580565E-9   -4.197383857577838E-9    -4.198002952764318E-9    -4.197076679780681E-9    -4.196150406797044E-9    -4.195224133813406E-9    -4.1942978608297695E-9   -4.193371587846132E-9    -4.193040717038177E-9    -4.193804103067988E-9